/*--------------------------------*- C++ -*----------------------------------*\
  =========                 |
  \\      /  F ield         | OpenFOAM: The Open Source CFD Toolbox
   \\    /   O peration     | Website:  https://openfoam.org
    \\  /    A nd           | Version:  13
     \\/     M anipulation  |
\*---------------------------------------------------------------------------*/
FoamFile
{
    format      ascii;
    class       volScalarField;
    location    "2";
    object      epsilon;
}
// * * * * * * * * * * * * * * * * * * * * * * * * * * * * * * * * * * * * * //

dimensions      [0 2 -3 0 0 0 0];

internalField   nonuniform List<scalar> 
3000
(
47663
13247.7
6000.16
5143.32
5067.61
5062.01
5061.62
5061.33
5059.12
5041.56
22134.9
5514.12
2510.3
2174.32
2145.15
2142.99
2142.84
2142.73
2141.89
2135.25
26572.5
6329.93
2658.83
2234.17
2195.4
2192.35
2192.12
2191.99
2191.09
2184.32
30701.9
7314.4
2825.14
2275.18
2221.71
2217.22
2216.86
2216.71
2215.71
2208.8
34218.9
8331.44
3002.01
2304.43
2231.81
2225.26
2224.71
2224.51
2223.39
2216.29
36991.2
9263.26
3175.34
2324.76
2229.82
2220.61
2219.78
2219.52
2218.28
2210.85
38672.2
9958.29
3322.04
2336.14
2218.03
2205.67
2204.46
2204.13
2202.73
2194.79
38289.4
10185.5
3410.15
2336.5
2197.53
2181.74
2180.06
2179.65
2178.05
2169.38
33672.2
9683.7
3417.15
2324.75
2169.03
2149.63
2147.39
2146.86
2145.05
2135.44
22461.5
8656.54
3393.57
2307.04
2133.85
2110.3
2107.39
2106.72
2104.67
2093.97
76691.3
15410.4
6139.94
5178.83
5098.85
5093.1
5092.7
5092.42
5090.22
5072.48
30448.8
8534.93
1106.69
847.447
831.461
830.327
830.247
830.195
829.776
825.004
15541.6
6127.74
744.183
495.545
483.056
482.157
482.09
482.06
481.84
477.643
11958.7
5235.8
828.705
459.465
439.996
438.532
438.415
438.37
438.05
432.788
11431.7
5057.82
980.805
464.943
435.333
432.996
432.797
432.73
432.291
426.312
11936.5
5231.12
1125.6
470.138
429.897
426.557
426.255
426.167
425.663
419.555
12832.7
5623.09
1248.9
468.907
419.213
414.865
414.443
414.335
413.805
407.845
13878.2
6211.83
1346.69
466.884
409.647
404.299
403.738
403.605
403.053
397.26
15235.8
7376.87
1518.11
527.082
456.442
449.087
448.242
448.05
447.374
441.308
18810.1
6080.66
2230.11
1482.4
1364.97
1348.94
1346.94
1346.51
1345.24
1338.66
95009.4
18325.4
6441.55
5186.69
5079.38
5071.39
5070.81
5070.49
5068.01
5048.93
33056
10867.2
1141.08
804.994
785.964
784.591
784.491
784.439
784.052
779.45
13060
6098.83
705.091
401.676
389.345
388.492
388.427
388.413
388.353
384.738
7452.88
3847.17
750.123
326.916
306.739
305.311
305.195
305.172
305.029
299.692
5796.79
2957.93
846.956
317.809
285.028
282.571
282.36
282.314
282.017
275.137
5537.95
2705.95
921.473
320.727
275.299
271.679
271.349
271.284
270.919
263.693
6021.13
2838.14
1007.63
322.383
265.727
260.953
260.487
260.402
260.016
253.015
7341.72
3440.56
1161.03
331.775
264.379
258.376
257.74
257.619
257.18
250.33
10859.9
5611.18
1617.29
437.4
345.427
336.451
335.399
335.189
334.554
327.465
23498.8
7424.79
2518.39
1547.75
1390.28
1367.89
1364.96
1364.39
1363.03
1356.39
104150
20483.9
6720.08
5188.49
5050.51
5039.67
5038.85
5038.45
5035.68
5015.38
36084.4
12491
1228.14
800.422
776.358
774.541
774.402
774.341
773.926
769.331
13598.5
6492.02
779.09
390.523
375.041
373.943
373.856
373.842
373.809
370.393
7023.07
3621.49
814.11
311.011
284.999
283.107
282.947
282.922
282.802
277.359
4897.09
2437.74
846.95
303.137
261.054
257.737
257.438
257.391
257.124
249.943
4351.4
2020.13
844.741
308.954
252.443
247.572
247.107
247.049
246.793
239.751
4672.65
2047.23
895.669
318.125
247.822
241.261
240.589
240.504
240.25
233.793
6068.71
2642.77
1099.74
344.88
256.129
247.358
246.376
246.219
245.793
239.059
10425.6
5235.97
1835.72
484.967
350.78
337.08
335.408
335.099
334.366
326.931
26774.2
8767.69
2858.21
1619.98
1407.42
1375.4
1370.98
1370.16
1368.67
1361.92
109121
21963.2
6938.88
5184.68
5018.48
5004.72
5003.62
5003.15
5000.11
4978.72
38377.6
13580.5
1298.75
797.149
768.628
766.371
766.189
766.118
765.677
761.103
14481.8
6917.23
844.208
386.645
368.515
367.184
367.073
367.058
367.04
363.846
7332.3
3723.05
876.611
305.907
275.043
272.718
272.51
272.483
272.386
267.149
4952.47
2388.25
871.597
299.029
249.071
244.93
244.538
244.486
244.259
237.262
4287.53
1896.77
829.642
306.74
240.775
234.679
234.066
234.008
233.855
227.356
4580.33
1893.46
867.015
321.996
239.975
231.635
230.73
230.637
230.516
224.98
6090.65
2528.21
1109.68
364.149
255.775
244.11
242.723
242.518
242.141
236.121
10943.7
5430.61
2059.3
536.116
357.213
338.069
335.621
335.188
334.394
327.132
28975.6
9915.09
3193.24
1693.22
1419.26
1375.36
1368.92
1367.76
1366.1
1359.13
112372
23033.4
7108.6
5177.93
4987.26
4970.74
4969.36
4968.81
4965.52
4943.13
40165.2
14396.7
1353.94
794.178
762.001
759.348
759.125
759.045
758.583
754.037
15321.9
7319.06
897.254
384.671
364.569
363.048
362.914
362.898
362.896
359.938
7768
3919.88
935.781
303.262
268.646
265.969
265.718
265.687
265.611
260.655
5218.6
2489.12
919.754
297.837
240.679
235.778
235.289
235.224
234.992
228.056
4494.38
1956.61
864.65
309.204
232.858
225.476
224.693
224.609
224.426
217.766
4805.69
1950.09
902.152
329.809
234.131
223.87
222.695
222.562
222.41
216.764
6439.33
2645.04
1179.45
382.076
252.826
238.213
236.386
236.109
235.691
229.689
11619.4
5814.93
2293.26
581.373
358.129
333.546
330.27
329.693
328.83
321.57
30503.3
10827.8
3489.16
1761.14
1427.52
1370.93
1362.15
1360.56
1358.71
1351.38
114646
23808.9
7236.67
5171.21
4960.6
4941.68
4940.04
4939.43
4935.93
4912.69
41530.7
15019.8
1396.29
791.704
756.672
753.688
753.427
753.339
752.861
748.34
16026.5
7665.46
939.395
383.41
361.884
360.216
360.064
360.046
360.059
357.312
8174.84
4122.53
987.664
301.606
264.179
261.237
260.95
260.914
260.857
256.168
5501.33
2623.99
973.499
297.927
234.571
229.032
228.457
228.375
228.12
221.194
4740.61
2065.6
917.533
313.798
227.259
218.671
217.721
217.6
217.329
210.22
5077.48
2064.4
960.817
339.283
229.587
217.47
216.023
215.834
215.567
209.291
6809.28
2816.9
1267.9
398.14
248.796
231.491
229.244
228.885
228.373
221.934
12185.2
6198.77
2504.95
619.01
356.584
327.259
323.217
322.495
321.55
314.124
31518.1
11475.6
3716.46
1816.29
1433.04
1364.88
1353.78
1351.73
1349.66
1341.9
115178
24041.7
7284.8
5166.01
4945.48
4925.15
4923.34
4922.68
4919.08
4895.44
42030
15281.2
1411.72
789.628
753.261
750.088
749.801
749.708
749.222
744.729
16419
7873.16
956.432
381.488
359.44
357.703
357.539
357.52
357.541
354.912
8457.57
4272.09
1013.18
298.95
260.448
257.393
257.086
257.048
257.003
252.482
5726.7
2738.49
1007.53
295.842
229.537
223.697
223.071
222.978
222.711
215.816
4948.41
2166.55
957.909
314.553
222.265
213.02
211.966
211.818
211.48
204.055
5294.05
2169.4
1007.98
343.172
225.017
211.82
210.197
209.963
209.599
202.797
7046.8
2951.41
1330.21
405.011
244.219
225.394
222.879
222.458
221.868
215.039
12398.7
6428.69
2619.06
636.242
353.766
321.849
317.318
316.487
315.48
307.916
31628
11620
3796.62
1840.84
1434.47
1359.52
1346.8
1344.39
1342.15
1334.04
105459
21880.8
7033.27
5172.23
4976.92
4958.54
4956.84
4956.22
4952.83
4930.32
38059.5
13620.8
1321.22
787.331
754.292
751.329
751.053
750.96
750.472
745.879
15305.6
7259.49
863.164
370.124
350.179
348.553
348.394
348.371
348.347
345.343
8269.71
4118.74
919.623
288.02
253.666
250.867
250.575
250.534
250.447
245.626
5864.81
2757.37
946.392
283.732
224.957
219.725
219.147
219.056
218.786
211.977
5219.67
2255.43
935.367
301.048
218.077
209.796
208.826
208.682
208.352
201.231
5576.87
2284.47
1004.48
329.222
221.024
209.034
207.522
207.289
206.914
200.356
7124.01
3026.12
1301
386.307
240.082
222.864
220.49
220.072
219.484
212.901
11663.2
6194.77
2402.89
594.869
348.782
319.79
315.467
314.636
313.651
306.368
28056.7
10225.6
3484.43
1788.96
1427.18
1357.83
1345.5
1343.05
1340.79
1332.71
19534
9082.59
5839.71
5292.72
5221.33
5213.19
5212.27
5211.82
5209.28
5192.28
2258.56
1008.58
654.626
595.828
588.082
587.177
587.072
587.026
586.768
585.107
1137.68
489.35
298.437
264.795
260.044
259.446
259.373
259.347
259.231
258.552
5763.77
563.881
319.625
273.17
266.069
265.103
264.977
264.941
264.814
264.164
7013.49
648.091
343.15
280.022
269.524
267.974
267.755
267.702
267.561
266.924
8183.93
734.848
368.835
286.166
271.165
268.755
268.389
268.307
268.144
267.484
9059.97
812.657
394.74
291.643
271.177
267.59
267.004
266.876
266.679
265.94
9274.96
865.219
417.136
295.642
269.155
264.087
263.192
262.997
262.749
261.862
8334.94
877.044
431.655
296.434
263.941
257.174
255.887
255.604
255.291
254.18
7796.8
4769.1
2431.51
1623.71
1412.01
1364.71
1355.16
1353.01
1350.9
1343.31
13.7719
14.1304
14.3321
14.4829
14.6025
14.7087
14.8181
14.9476
15.1164
15.3455
14.8759
14.8788
14.8781
14.8753
14.8707
14.8637
14.8526
14.8349
14.8067
14.7631
14.8911
14.8854
14.8826
14.8788
14.8737
14.8665
14.856
14.8401
14.816
14.7809
14.8771
14.8767
14.8769
14.8754
14.872
14.8666
14.8583
14.8454
14.8255
14.7961
14.8612
14.8669
14.8706
14.8715
14.8702
14.8669
14.861
14.8514
14.8359
14.8123
14.8433
14.8558
14.8635
14.8674
14.8685
14.8676
14.8644
14.8581
14.847
14.8294
14.8233
14.8435
14.8558
14.8631
14.8672
14.8688
14.8684
14.8654
14.8588
14.8472
14.8008
14.8299
14.8476
14.859
14.8662
14.8706
14.8729
14.8732
14.871
14.8657
14.774
14.8149
14.839
14.8546
14.8648
14.8715
14.8759
14.8787
14.8799
14.8789
15.0819
14.9737
14.9016
14.8449
14.7958
14.7471
14.6913
14.62
14.5233
14.3912
20.4381
17.9978
16.642
15.7445
15.101
14.5397
13.9086
13.058
11.8298
10.0607
14.4994
14.8341
14.9139
14.9203
14.9057
14.8867
14.8628
14.8194
14.7186
14.4698
14.8495
14.8563
14.858
14.8579
14.8574
14.8567
14.8559
14.8547
14.8523
14.8477
14.8613
14.8587
14.8573
14.8565
14.856
14.8557
14.8556
14.8557
14.8559
14.857
14.8608
14.8582
14.857
14.8563
14.8559
14.8557
14.8557
14.856
14.8565
14.8579
14.8599
14.8576
14.8567
14.8561
14.8558
14.8558
14.8559
14.8563
14.857
14.8587
14.8589
14.857
14.8563
14.8559
14.8557
14.8558
14.8561
14.8567
14.8576
14.8596
14.8562
14.8559
14.8558
14.8557
14.8558
14.856
14.8564
14.8571
14.8581
14.8598
14.699
14.8083
14.8432
14.8569
14.863
14.8671
14.87
14.8687
14.8519
14.7908
12.1246
13.2439
13.8962
14.3466
14.678
14.9679
15.2925
15.7348
16.3893
17.3536
28.2344
21.9394
18.5998
16.5268
15.1099
13.8921
12.5122
10.6529
8.00437
4.10233
13.4806
15.0853
15.3828
15.313
15.1591
14.9984
14.818
14.5377
13.9625
12.6259
14.6369
14.8172
14.8751
14.8901
14.887
14.8767
14.8609
14.8337
14.7777
14.6562
14.843
14.8536
14.8569
14.8579
14.8578
14.8572
14.8564
14.8549
14.8519
14.8457
14.8599
14.8582
14.8571
14.8564
14.856
14.8559
14.856
14.8563
14.8569
14.8581
14.8602
14.858
14.8569
14.8562
14.8559
14.8558
14.8561
14.8566
14.8575
14.8593
14.858
14.8572
14.8566
14.8561
14.8559
14.856
14.8563
14.8569
14.8578
14.8593
14.8173
14.8454
14.8531
14.8564
14.8581
14.8591
14.8597
14.8588
14.8546
14.8439
13.9108
14.5429
14.7552
14.8472
14.8952
14.9305
14.9593
14.9632
14.8749
14.5134
8.39165
10.9888
12.5188
13.5793
14.3614
15.0447
15.8128
16.8753
18.4809
20.9008
36.7674
25.3974
19.7484
16.6178
14.6579
12.9998
11.0598
8.42755
4.87702
0.0844996
13.9647
16.8384
16.871
16.2578
15.6308
15.0899
14.5428
13.7723
12.3126
8.97554
13.9715
14.8814
15.134
15.144
15.0698
14.9723
14.8548
14.675
14.326
13.5681
14.6538
14.8188
14.8761
14.8928
14.8902
14.8792
14.8619
14.8331
14.7762
14.6546
14.8276
14.8492
14.8567
14.8595
14.8599
14.859
14.8573
14.8543
14.8479
14.8341
14.8533
14.8563
14.8566
14.8566
14.8565
14.8565
14.8566
14.8567
14.8567
14.8562
14.8256
14.8489
14.8542
14.8566
14.8579
14.8587
14.859
14.8582
14.8551
14.8482
14.5227
14.7544
14.8228
14.8554
14.8736
14.8857
14.8921
14.8855
14.8481
14.7498
12.0027
13.8177
14.462
14.7672
14.9493
15.1
15.245
15.3374
15.1761
14.1782
4.16045
8.351
10.8683
12.6115
13.8934
15.0053
16.2643
18.0567
20.8755
25.3109
44.4505
27.1079
19.3854
15.8173
13.8726
12.1842
9.97906
6.84934
3.06495
0.00126511
17.7485
20.3502
18.8689
17.1251
15.8447
14.9016
13.9873
12.7037
10.3304
5.21597
13.8145
15.8761
16.145
15.842
15.4518
15.1
14.7461
14.2395
13.2474
11.0119
14.1783
14.9151
15.1285
15.1321
15.0602
14.9691
14.8632
14.7042
14.3923
13.6965
14.613
14.823
14.8956
14.9143
14.9077
14.8906
14.866
14.826
14.7466
14.57
14.7375
14.8281
14.8555
14.8666
14.8698
14.8689
14.8647
14.8546
14.8321
14.7822
14.5422
14.7675
14.829
14.859
14.876
14.887
14.8917
14.8831
14.8468
14.7604
13.3936
14.3723
14.6815
14.8353
14.9301
15.005
15.064
15.0729
14.9402
14.4987
8.71243
12.4473
13.8407
14.5383
14.9927
15.4058
15.8588
16.2866
16.2634
14.3712
0.000152887
5.58004
9.08802
11.5025
13.2549
14.7408
16.4355
18.9806
23.2845
30.5761
48.892
25.715
17.364
14.574
13.3865
12.1163
9.92229
6.35056
2.09149
0.00126492
23.3342
23.2868
19.3926
16.7788
15.3752
14.4748
13.4943
11.9075
8.96203
2.62475
15.6544
18.1314
17.4534
16.3552
15.546
14.9972
14.4944
13.7288
12.0997
8.0089
14.1947
15.7478
15.8907
15.6045
15.2877
15.0332
14.7955
14.4415
13.676
11.7495
14.2134
14.9881
15.1745
15.1481
15.0614
14.972
14.8778
14.73
14.4077
13.6104
14.1737
14.7431
14.9056
14.9538
14.9585
14.9496
14.9287
14.8711
14.715
14.3265
13.4321
14.4357
14.7356
14.8767
14.9602
15.0266
15.0779
15.0741
14.916
14.4283
11.0026
13.4847
14.3335
14.7537
15.0306
15.2869
15.5546
15.7481
15.5556
14.2965
5.35141
10.76
12.9859
14.1306
14.9111
15.6742
16.6315
17.8034
18.5542
16.0448
0.00126516
3.42881
7.53135
10.4868
12.559
14.2037
16.0617
19.1259
25.0254
36.3124
47.8281
20.9566
14.739
13.9087
13.8262
13.2305
11.4623
7.78286
2.51368
0.00126474
27.1329
22.5996
17.512
15.5211
14.8517
14.441
13.7205
12.1201
8.91449
1.90331
18.4968
19.5403
17.2927
15.8164
15.1444
14.8036
14.4341
13.6712
11.8188
6.38166
15.2531
16.9951
16.3632
15.6149
15.1755
14.9445
14.7477
14.3619
13.306
10.029
14.0577
15.5596
15.5838
15.3219
15.1175
15.0067
14.9256
14.7425
14.1521
12.2845
13.1677
14.7415
15.067
15.0893
15.0685
15.0817
15.1188
15.0869
14.7344
13.4576
11.5338
13.936
14.6323
14.9007
15.0585
15.2356
15.4679
15.6657
15.4682
14.0266
8.2425
12.4754
13.9342
14.595
15.0202
15.472
16.1008
16.8746
17.1736
14.9394
3.15141
9.47863
12.2492
13.6743
14.5943
15.478
16.761
18.8348
21.3136
19.6208
0.00126514
2.456
6.85102
10.1913
12.3146
13.7136
15.145
17.9536
24.8718
41.1602
41.1413
15.4556
13.6583
14.3059
14.6147
14.5056
13.6963
11.0806
5.03162
0.00126469
27.0112
18.7448
15.3696
14.8499
14.8125
14.7593
14.474
13.4211
10.4095
2.81593
20.0348
18.2406
15.7928
15.0509
14.8897
14.8408
14.7212
14.249
12.6612
6.82283
16.4165
16.9766
15.6833
15.0959
14.9286
14.8972
14.8738
14.6933
13.8144
9.84964
14.3655
15.8418
15.393
15.0574
14.9464
14.9528
15.015
15.035
14.589
11.9117
12.6647
14.8972
15.0538
14.9719
14.9511
15.0221
15.2011
15.4529
15.3791
13.3129
10.4411
13.8898
14.6354
14.8282
14.9322
15.1032
15.4645
16.096
16.5845
14.6087
7.07404
12.374
13.9377
14.5315
14.8323
15.1428
15.7538
17.0156
18.7179
17.018
2.8012
9.54116
12.4003
13.7818
14.4696
14.9482
15.7353
17.705
21.8564
23.6348
0.00126526
3.16731
8.29442
11.6466
13.3171
14.0126
14.3999
15.6739
21.4691
42.1091
31.2576
13.2102
14.3868
14.7885
14.8507
14.8497
14.7618
14.0586
9.98367
0.911181
23.5506
15.4947
14.7966
14.8393
14.8553
14.8565
14.8328
14.5929
12.9324
5.97366
19.3725
15.9009
14.9415
14.8595
14.8572
14.8594
14.8584
14.7798
14.046
9.13374
16.7335
15.7108
14.9774
14.8681
14.8585
14.863
14.8807
14.9046
14.6501
11.3612
14.8871
15.3464
14.952
14.8677
14.8591
14.8679
14.9068
15.0255
15.1202
13.0021
13.2136
14.9128
14.8811
14.8569
14.8582
14.8736
14.9397
15.1777
15.6723
14.4055
11.1847
14.3451
14.7446
14.8273
14.8525
14.8775
14.974
15.3687
16.4608
16.0815
8.36032
13.4127
14.4611
14.7538
14.8342
14.8712
14.9838
15.5325
17.5174
18.9217
4.5472
11.5346
13.8111
14.5716
14.7834
14.8357
14.9004
15.4087
18.3143
24.5981
0.00126546
7.0738
12.224
14.1152
14.6522
14.735
14.5915
14.3391
16.0775
36.1529
21.0106
14.3465
14.8347
14.848
14.8448
14.8413
14.8374
14.8145
14.1053
8.91322
18.3961
14.7912
14.8512
14.8538
14.8518
14.8496
14.8475
14.8402
14.6035
11.2015
16.8912
14.9181
14.8593
14.8581
14.8569
14.8556
14.8544
14.853
14.7851
12.5693
15.8268
14.942
14.8637
14.8612
14.8605
14.8599
14.8594
14.8621
14.879
13.5673
14.9914
14.9247
14.8655
14.8632
14.863
14.8628
14.863
14.8695
14.9474
14.3565
14.1741
14.8846
14.8644
14.8639
14.8642
14.8646
14.8654
14.8759
15.0211
15.1175
13.1529
14.8106
14.8585
14.8626
14.8638
14.8648
14.8663
14.8804
15.1082
16.0773
11.6765
14.6507
14.842
14.8582
14.861
14.8629
14.865
14.878
15.1754
17.5539
9.44597
14.2653
14.8023
14.848
14.854
14.8574
14.8596
14.8563
15.0719
20.0073
6.04101
13.294
14.7117
14.8287
14.8411
14.8467
14.8479
14.7918
14.313
24.0656
11.6451
14.5897
14.7905
14.803
14.8137
14.8245
14.8355
14.8453
14.7218
17.8715
12.8948
14.7577
14.8242
14.8313
14.8377
14.8441
14.8506
14.857
14.8397
16.5862
13.6283
14.8263
14.8462
14.8503
14.8541
14.8579
14.8618
14.8657
14.8777
15.8263
14.1563
14.864
14.8619
14.8638
14.8658
14.8678
14.8697
14.8718
14.8883
15.2778
14.5669
14.8895
14.8731
14.8732
14.8738
14.8743
14.8747
14.8752
14.8868
14.8396
14.959
14.9122
14.8807
14.8791
14.8783
14.8773
14.8763
14.875
14.877
14.4049
15.4521
14.9346
14.8851
14.8813
14.8786
14.8759
14.873
14.8694
14.8537
13.8548
16.2056
14.9474
14.8851
14.8786
14.8731
14.8676
14.862
14.8543
14.7991
13.0454
17.4373
14.9112
14.8778
14.8682
14.8584
14.8486
14.8386
14.8234
14.6668
11.7994
19.4214
14.7032
14.8571
14.8463
14.8298
14.8133
14.7966
14.7681
14.3441
9.90681
8.75095
14.0803
14.8323
14.8569
14.8581
14.8587
14.8589
14.8414
14.3096
21.2974
11.105
14.5936
14.8466
14.8561
14.8567
14.8571
14.8575
14.8548
14.7778
18.5654
12.5138
14.7768
14.8529
14.8559
14.8562
14.8564
14.8567
14.8579
14.9093
17.001
13.5439
14.8689
14.8574
14.8559
14.8559
14.856
14.8561
14.8583
14.9306
15.8982
14.3613
14.9359
14.8617
14.856
14.8558
14.8558
14.8558
14.8572
14.9085
15.036
15.152
15.0098
14.8667
14.8565
14.8559
14.8558
14.8554
14.8541
14.8634
14.1952
16.1501
15.0995
14.8719
14.8571
14.8562
14.8559
14.8549
14.8471
14.7854
13.1482
17.6852
15.1705
14.8735
14.8578
14.8568
14.8563
14.8539
14.8307
14.623
11.6382
20.2395
15.0656
14.8581
14.8579
14.8578
14.8569
14.8518
14.7938
14.2324
9.35936
24.4834
14.273
14.791
14.8557
14.8595
14.8582
14.8483
14.7179
13.2313
5.86364
5.22072
12.7778
14.6957
14.849
14.8583
14.859
14.8536
14.7543
13.6846
25.407
8.86039
14.0917
14.7914
14.853
14.857
14.8575
14.8569
14.8453
14.8115
20.7442
11.0509
14.5738
14.8328
14.8551
14.8564
14.8566
14.8571
14.8677
15.0984
18.1359
12.6336
14.8291
14.8616
14.8571
14.8561
14.856
14.8564
14.8709
15.1004
16.3658
13.8588
15.027
14.8887
14.8597
14.8561
14.8556
14.855
14.8628
14.9954
15.0324
15.0001
15.2567
14.921
14.8633
14.8565
14.8552
14.8519
14.8431
14.8356
13.7665
16.4224
15.5598
14.959
14.8676
14.8571
14.8544
14.8453
14.8018
14.597
12.2139
18.6854
15.8866
14.9849
14.8697
14.8575
14.853
14.831
14.712
14.1642
10.0138
22.7004
15.8965
14.9295
14.8599
14.8567
14.8499
14.8017
14.5155
13.2094
6.78321
29.9235
14.319
14.5927
14.8122
14.8517
14.844
14.7465
14.1059
10.8125
1.6616
1.38003
10.4206
14.1515
14.7735
14.8503
14.8541
14.8114
14.4866
13.2077
30.4605
6.36704
13.1062
14.5575
14.8195
14.8537
14.8569
14.854
14.8526
15.2262
23.1408
9.39022
14.1063
14.7313
14.8408
14.8552
14.8569
14.8626
14.9379
15.6408
19.195
11.531
14.64
14.8467
14.8586
14.857
14.8561
14.862
14.9397
15.5004
16.6865
13.1267
15.0561
14.9507
14.8783
14.8596
14.8544
14.8543
14.8988
15.1862
14.9165
14.5149
15.5448
15.0773
14.9045
14.8633
14.8507
14.8366
14.823
14.8024
13.305
16.181
16.2273
15.2431
14.9378
14.8674
14.8422
14.7992
14.6873
14.31
11.3562
18.9646
17.1033
15.4113
14.965
14.8674
14.8228
14.719
14.4129
13.5243
8.65137
24.4457
17.6911
15.3722
14.9302
14.849
14.7804
14.5508
13.8113
11.8917
4.95467
35.5895
15.6915
14.4138
14.6625
14.7718
14.6937
14.2197
12.4962
7.67398
0.00126549
0.00126484
7.01123
12.6626
14.369
14.7568
14.7978
14.6377
14.03
13.7684
36.3016
3.64444
11.627
13.8954
14.6307
14.8119
14.8499
14.873
15.051
16.4792
25.3675
7.62892
13.3259
14.4178
14.7473
14.8347
14.8613
14.9205
15.2497
16.7273
19.8155
10.3551
14.1985
14.73
14.8306
14.8525
14.8633
14.9166
15.1942
16.1668
16.6525
12.2767
14.8467
14.9814
14.9095
14.871
14.8595
14.8851
15.0425
15.4652
14.6502
13.7616
15.5826
15.28
15.0091
14.8945
14.8481
14.828
14.8415
14.7633
12.914
15.3667
16.6478
15.7052
15.1469
14.9228
14.8189
14.7224
14.5575
13.9834
10.7672
18.1955
18.2178
16.2495
15.3006
14.9374
14.7428
14.4996
14.043
12.882
7.72728
24.7433
19.9478
16.5375
15.2976
14.8612
14.5478
13.9967
12.8852
10.6993
3.87019
40.6731
18.7715
14.8686
14.4877
14.4489
14.0742
12.8852
10.0662
5.07604
0.00126536
0.00126455
4.0634
10.0799
13.1265
14.2497
14.502
14.287
13.9083
16.3549
42.0704
2.41241
10.154
12.7917
14.0678
14.6024
14.8299
15.0771
15.8729
18.7533
26.5594
6.46347
12.482
13.9026
14.4773
14.7399
14.9039
15.1957
16.046
18.1048
19.4612
9.59542
13.5916
14.4651
14.7143
14.8204
14.9153
15.1313
15.7086
16.772
16.1144
11.738
14.3625
14.8415
14.8864
14.8804
14.9042
15.013
15.2906
15.6185
14.3712
13.1532
15.1574
15.258
15.0804
14.948
14.8866
14.8815
14.8985
14.6738
12.9348
14.3404
16.2942
15.9016
15.3737
15.0437
14.8555
14.7141
14.4834
13.7222
10.9382
16.4746
18.2109
16.9145
15.794
15.1463
14.7499
14.3937
13.8511
12.4614
7.74353
22.9645
21.1984
17.9965
16.0722
15.0578
14.3517
13.5537
12.3766
10.1265
3.50074
43.7933
22.7369
16.4156
14.6631
13.9464
13.0105
11.1855
7.95222
3.61568
0.00126528
0.00126465
2.02306
7.31351
11.06
13.0074
13.8102
14.1151
15.0768
20.7975
45.5875
1.65603
9.26941
11.9052
13.3451
14.2413
14.9024
15.7563
17.502
21.1024
25.2541
6.08421
11.8709
13.5322
14.2268
14.6614
15.0878
15.7605
16.9894
18.6627
17.6992
9.75096
13.1262
14.203
14.5991
14.8159
15.0474
15.4277
16.047
16.6163
15.1977
12.0878
13.9721
14.5806
14.7855
14.875
14.969
15.1265
15.3485
15.4131
14.3554
13.3287
14.6422
14.9334
14.9628
14.9356
14.9184
14.9187
14.8901
14.6545
13.6902
13.8812
15.401
15.4741
15.2689
15.066
14.9095
14.7583
14.5011
13.8844
12.3646
14.5997
16.8183
16.5374
15.863
15.3101
14.9018
14.5238
13.9555
12.6871
9.52964
19.0312
20.0661
18.3825
16.6754
15.4716
14.5871
13.752
12.6487
10.4492
4.68588
42.9767
25.5294
18.4638
15.4872
13.9121
12.4467
10.3889
7.35655
3.61742
0.00126522
0.00126486
1.76155
6.19067
9.70953
11.9872
13.4504
14.8269
17.5183
24.7396
43.7376
2.41559
9.47718
12.0977
13.4099
14.3745
15.3433
16.6439
18.596
20.9636
20.4133
7.8737
12.0908
13.6573
14.3721
14.8345
15.308
15.9349
16.7159
17.1605
15.2022
11.72
13.5367
14.2859
14.6486
14.8649
15.0594
15.2881
15.5223
15.5264
14.5394
13.6361
14.3289
14.6185
14.7668
14.8523
14.9191
14.9858
15.0379
14.993
14.614
14.3585
14.6973
14.8027
14.8457
14.8627
14.87
14.8707
14.8549
14.7902
14.5984
14.4085
14.9033
14.9788
14.9607
14.9183
14.8703
14.8098
14.7117
14.5286
14.1812
13.9813
15.3065
15.4494
15.3025
15.1084
14.9228
14.7186
14.4078
13.8123
12.6113
14.7242
17.1215
17.0026
16.2544
15.5322
14.9233
14.328
13.5171
11.9345
8.0011
37.0343
25.2046
19.5231
16.4651
14.5757
12.9626
11.0461
8.42932
4.90584
0.0338249
0.00126524
3.78304
7.87414
10.6995
12.7198
14.376
16.2442
19.1864
24.586
34.6323
6.79381
11.5921
13.3671
14.253
14.8607
15.4463
16.1242
16.843
17.0849
14.9193
12.565
13.8915
14.4297
14.7083
14.8786
15.0156
15.1442
15.2302
15.1241
14.4249
14.3912
14.6503
14.7579
14.8176
14.8535
14.879
14.8985
14.906
14.877
14.7507
14.7848
14.8236
14.8393
14.8484
14.854
14.8579
14.8608
14.8619
14.8583
14.8422
14.8472
14.8533
14.8548
14.8554
14.8557
14.856
14.8563
14.8565
14.8563
14.855
14.8302
14.8563
14.8603
14.8602
14.8586
14.8565
14.8537
14.8495
14.8422
14.83
14.6217
14.8525
14.8988
14.9001
14.8867
14.8682
14.8433
14.8026
14.7268
14.5851
13.5173
15.0122
15.3111
15.2499
15.103
14.9466
14.77
14.497
13.9336
12.6048
27.4824
21.5991
18.4606
16.4902
15.1323
13.9626
12.6393
10.8535
8.28487
4.41799
9.73957
11.796
13.0068
13.8431
14.4529
14.9775
15.5596
16.3589
17.5624
19.3752
14.3039
14.6766
14.8068
14.863
14.8901
14.9065
14.9165
14.9099
14.8503
14.6409
14.8187
14.847
14.8635
14.8723
14.8754
14.8738
14.8679
14.8568
14.8386
14.8121
14.8276
14.8496
14.8645
14.8728
14.8757
14.8741
14.868
14.8569
14.8396
14.8165
14.8236
14.8469
14.863
14.8723
14.8761
14.8751
14.8695
14.8586
14.8412
14.8179
14.8195
14.844
14.8611
14.8713
14.8761
14.8759
14.871
14.8606
14.8436
14.8202
14.8158
14.8411
14.8589
14.87
14.8756
14.8763
14.8723
14.8628
14.8465
14.8237
14.8121
14.8385
14.8567
14.8683
14.8746
14.8763
14.8732
14.8648
14.8496
14.8274
14.7065
14.8172
14.8585
14.8755
14.8817
14.8821
14.8768
14.8615
14.8253
14.7439
17.4015
16.3182
15.7045
15.2888
14.985
14.7155
14.4071
13.9845
13.3653
12.4675
)
;

boundaryField
{
    inlet
    {
        type            fixedValue;
        value           uniform 14.855;
    }
    outlet
    {
        type            zeroGradient;
    }
    walls
    {
        type            epsilonWallFunction;
        value           nonuniform List<scalar> 
400
(
47663
22134.9
26572.5
30701.9
34218.9
36991.2
38672.2
38289.4
33672.2
22461.5
13247.7
5514.12
6329.93
7314.4
8331.44
9263.26
9958.29
10185.5
9683.7
8656.54
6000.16
2510.3
2658.83
2825.14
3002.01
3175.34
3322.04
3410.15
3417.15
3393.57
5143.32
2174.32
2234.17
2275.18
2304.43
2324.76
2336.14
2336.5
2324.75
2307.04
5067.61
2145.15
2195.4
2221.71
2231.81
2229.82
2218.03
2197.53
2169.03
2133.85
5062.01
2142.99
2192.35
2217.22
2225.26
2220.61
2205.67
2181.74
2149.63
2110.3
5061.62
2142.84
2192.12
2216.86
2224.71
2219.78
2204.46
2180.06
2147.39
2107.39
5061.33
2142.73
2191.99
2216.71
2224.51
2219.52
2204.13
2179.65
2146.86
2106.72
5059.12
2141.89
2191.09
2215.71
2223.39
2218.28
2202.73
2178.05
2145.05
2104.67
5041.56
2135.25
2184.32
2208.8
2216.29
2210.85
2194.79
2169.38
2135.44
2093.97
19534
2258.56
1137.68
5763.77
7013.49
8183.93
9059.97
9274.96
8334.94
7796.8
9082.59
1008.58
489.35
563.881
648.091
734.848
812.657
865.219
877.044
4769.1
5839.71
654.626
298.437
319.625
343.15
368.835
394.74
417.136
431.655
2431.51
5292.72
595.828
264.795
273.17
280.022
286.166
291.643
295.642
296.434
1623.71
5221.33
588.082
260.044
266.069
269.524
271.165
271.177
269.155
263.941
1412.01
5213.19
587.177
259.446
265.103
267.974
268.755
267.59
264.087
257.174
1364.71
5212.27
587.072
259.373
264.977
267.755
268.389
267.004
263.192
255.887
1355.16
5211.82
587.026
259.347
264.941
267.702
268.307
266.876
262.997
255.604
1353.01
5209.28
586.768
259.231
264.814
267.561
268.144
266.679
262.749
255.291
1350.9
5192.28
585.107
258.552
264.164
266.924
267.484
265.94
261.862
254.18
1343.31
47663
76691.3
95009.4
104150
109121
112372
114646
115178
105459
19534
13247.7
15410.4
18325.4
20483.9
21963.2
23033.4
23808.9
24041.7
21880.8
9082.59
6000.16
6139.94
6441.55
6720.08
6938.88
7108.6
7236.67
7284.8
7033.27
5839.71
5143.32
5178.83
5186.69
5188.49
5184.68
5177.93
5171.21
5166.01
5172.23
5292.72
5067.61
5098.85
5079.38
5050.51
5018.48
4987.26
4960.6
4945.48
4976.92
5221.33
5062.01
5093.1
5071.39
5039.67
5004.72
4970.74
4941.68
4925.15
4958.54
5213.19
5061.62
5092.7
5070.81
5038.85
5003.62
4969.36
4940.04
4923.34
4956.84
5212.27
5061.33
5092.42
5070.49
5038.45
5003.15
4968.81
4939.43
4922.68
4956.22
5211.82
5059.12
5090.22
5068.01
5035.68
5000.11
4965.52
4935.93
4919.08
4952.83
5209.28
5041.56
5072.48
5048.93
5015.38
4978.72
4943.13
4912.69
4895.44
4930.32
5192.28
22461.5
18810.1
23498.8
26774.2
28975.6
30503.3
31518.1
31628
28056.7
7796.8
8656.54
6080.66
7424.79
8767.69
9915.09
10827.8
11475.6
11620
10225.6
4769.1
3393.57
2230.11
2518.39
2858.21
3193.24
3489.16
3716.46
3796.62
3484.43
2431.51
2307.04
1482.4
1547.75
1619.98
1693.22
1761.14
1816.29
1840.84
1788.96
1623.71
2133.85
1364.97
1390.28
1407.42
1419.26
1427.52
1433.04
1434.47
1427.18
1412.01
2110.3
1348.94
1367.89
1375.4
1375.36
1370.93
1364.88
1359.52
1357.83
1364.71
2107.39
1346.94
1364.96
1370.98
1368.92
1362.15
1353.78
1346.8
1345.5
1355.16
2106.72
1346.51
1364.39
1370.16
1367.76
1360.56
1351.73
1344.39
1343.05
1353.01
2104.67
1345.24
1363.03
1368.67
1366.1
1358.71
1349.66
1342.15
1340.79
1350.9
2093.97
1338.66
1356.39
1361.92
1359.13
1351.38
1341.9
1334.04
1332.71
1343.31
)
;
    }
    defaultFaces
    {
        type            empty;
    }
}


// ************************************************************************* //
