/*--------------------------------*- C++ -*----------------------------------*\
  =========                 |
  \\      /  F ield         | OpenFOAM: The Open Source CFD Toolbox
   \\    /   O peration     | Website:  https://openfoam.org
    \\  /    A nd           | Version:  13
     \\/     M anipulation  |
\*---------------------------------------------------------------------------*/
FoamFile
{
    format      ascii;
    class       volScalarField;
    location    "2";
    object      k;
}
// * * * * * * * * * * * * * * * * * * * * * * * * * * * * * * * * * * * * * //

dimensions      [0 2 -2 0 0 0 0];

internalField   nonuniform List<scalar> 
3000
(
8.57724
1.28245
0.0861389
0.0408265
0.0383864
0.0382061
0.0381912
0.0381876
0.0381656
0.0377995
13.5216
4.12403
0.292225
0.068186
0.0556101
0.0546534
0.054571
0.0545596
0.054517
0.0538161
17.8375
6.98755
0.563574
0.0911144
0.0621253
0.059812
0.0596077
0.0595833
0.0595248
0.0586999
21.5062
9.89819
0.92509
0.118866
0.0659334
0.0615214
0.0611206
0.0610758
0.0610014
0.0601023
24.3516
12.3834
1.33618
0.150988
0.0688756
0.0617734
0.061111
0.0610388
0.060949
0.0599966
26.4861
14.2519
1.72325
0.181326
0.0707677
0.0609719
0.0600397
0.059939
0.0598366
0.0588496
27.8757
15.3739
1.9834
0.199208
0.0705343
0.0590968
0.0579995
0.0578809
0.0577721
0.0567709
28.1208
15.3664
1.97995
0.192047
0.0668177
0.0559622
0.0549296
0.0548172
0.0547109
0.0537187
25.9976
13.3484
1.58623
0.151699
0.0586694
0.05114
0.0504455
0.0503674
0.0502743
0.0493239
18.0755
9.06637
0.985775
0.0930997
0.0461358
0.0430339
0.0427671
0.042732
0.0426607
0.0418077
15.8812
2.89991
0.170416
0.0500216
0.0420481
0.0413821
0.0413229
0.0413147
0.0412867
0.0408751
21.9083
8.56782
0.916081
0.143727
0.0833018
0.0780678
0.0775935
0.0775411
0.0774492
0.0763629
26.1228
14.6198
2.16572
0.281047
0.118578
0.104012
0.102669
0.102527
0.102354
0.100792
29.4088
18.6482
3.59205
0.448791
0.14714
0.118898
0.11623
0.115952
0.115702
0.113855
32.0949
21.1726
4.97193
0.63602
0.172581
0.127247
0.122854
0.122398
0.122073
0.120011
34.2619
22.8219
6.09062
0.810209
0.193192
0.13071
0.12453
0.123886
0.123498
0.121266
35.7802
23.8116
6.69824
0.911486
0.201424
0.128436
0.121151
0.12039
0.119973
0.117656
36.197
23.828
6.47162
0.867098
0.187183
0.118339
0.111523
0.110813
0.110425
0.108148
34.3257
21.5625
4.99509
0.621747
0.142308
0.0967589
0.0924004
0.0919471
0.0916582
0.0896192
25.2742
15.0015
2.70867
0.245387
0.0709273
0.0582469
0.0571547
0.0570358
0.0569008
0.0555523
19.8589
4.60959
0.270566
0.0588192
0.0431136
0.0416677
0.0415308
0.0415141
0.041479
0.0410404
25.8649
11.7347
1.5784
0.221962
0.0971959
0.0852761
0.0841302
0.0840066
0.0838671
0.0826111
30.1504
18.987
3.86611
0.507049
0.159024
0.124648
0.121292
0.120938
0.120642
0.118704
33.5178
23.0405
6.46228
0.882543
0.221533
0.153475
0.146686
0.145973
0.145517
0.143159
36.295
25.1677
8.85534
1.30534
0.282721
0.173048
0.161863
0.160686
0.160077
0.15741
38.5678
26.4769
10.6479
1.69391
0.334669
0.18394
0.168289
0.166633
0.165894
0.162955
40.2167
27.4141
11.5581
1.91859
0.35935
0.183635
0.165235
0.163281
0.162482
0.159392
40.7854
27.769
11.1814
1.82143
0.332746
0.167169
0.149952
0.148126
0.147391
0.144372
39.0811
26.1805
8.70025
1.27515
0.236918
0.128169
0.117195
0.116038
0.11552
0.112892
30.3846
19.7219
4.70555
0.447718
0.0928165
0.0647489
0.0621948
0.0619226
0.0617287
0.0601791
22.2001
5.80374
0.351481
0.0666601
0.0436553
0.0413472
0.0411142
0.0410865
0.041045
0.0405901
28.2636
13.5018
2.06867
0.291573
0.106595
0.0872934
0.0853174
0.0851013
0.0849222
0.0835732
32.708
21.1033
5.08724
0.713783
0.190045
0.133506
0.127636
0.127001
0.126598
0.124433
36.2225
25.0067
8.4793
1.29291
0.285369
0.171984
0.15998
0.158684
0.158033
0.155327
39.139
26.82
11.4693
1.94996
0.384161
0.20084
0.181056
0.178911
0.178022
0.17491
41.5481
27.873
13.5345
2.5481
0.46979
0.218396
0.190858
0.187855
0.186766
0.183292
43.3385
28.764
14.5598
2.8944
0.513209
0.220574
0.188307
0.184773
0.183586
0.179898
44.0569
29.3945
14.2589
2.75795
0.476337
0.2001
0.169862
0.166552
0.165456
0.161855
42.488
28.4582
11.5002
1.93908
0.331254
0.148516
0.12907
0.126956
0.126199
0.123148
33.9519
22.905
6.72727
0.692004
0.116397
0.068416
0.0638426
0.0633473
0.0630924
0.0614147
23.759
6.61003
0.408618
0.072567
0.0439249
0.0408555
0.0405279
0.0404887
0.0404422
0.0399768
29.908
14.5864
2.38861
0.344413
0.113217
0.0873902
0.0845964
0.0842827
0.0840737
0.0826708
34.5252
22.3691
5.85301
0.871687
0.213073
0.136856
0.1285
0.127568
0.127082
0.124782
38.2103
26.2493
9.70286
1.61083
0.335428
0.181272
0.164053
0.162132
0.161323
0.158394
41.2888
27.9514
12.9861
2.45461
0.467269
0.216926
0.188468
0.185276
0.184147
0.180737
43.8526
28.9033
15.1331
3.21952
0.583539
0.239914
0.200335
0.195869
0.194473
0.190642
45.7931
29.7875
16.2031
3.67055
0.645782
0.24469
0.19825
0.192988
0.191452
0.187354
46.6532
30.5727
16.0284
3.52056
0.602441
0.221995
0.178309
0.173362
0.171935
0.167915
45.1828
30.0009
13.3559
2.50711
0.416064
0.16176
0.133401
0.130213
0.129237
0.125894
36.6351
25.0867
8.43935
0.936585
0.138852
0.07035
0.0636004
0.0628511
0.0625423
0.0607917
24.8994
7.19804
0.449401
0.0765945
0.0439777
0.0403316
0.0399263
0.039877
0.0398268
0.0393541
31.1283
15.346
2.60075
0.380838
0.117382
0.0866224
0.0831567
0.0827575
0.082528
0.0810937
35.9024
23.2941
6.34429
0.980577
0.228348
0.137253
0.126853
0.125662
0.12512
0.122747
39.7521
27.2661
10.475
1.83163
0.370023
0.184754
0.163216
0.160744
0.159825
0.156786
42.9937
29.0159
13.9534
2.80967
0.526919
0.224647
0.188907
0.184781
0.183483
0.179949
45.7148
29.9973
16.1858
3.69907
0.667809
0.251566
0.201744
0.195958
0.194337
0.190369
47.8015
30.9195
17.308
4.23438
0.746691
0.258657
0.199986
0.193143
0.191345
0.187085
48.7844
31.7765
17.2106
4.08748
0.700855
0.234992
0.179495
0.173027
0.171349
0.167154
47.3797
31.34
14.6282
2.94437
0.483422
0.169334
0.133072
0.12888
0.127737
0.124263
38.7716
26.7713
9.80605
1.15509
0.157617
0.0709881
0.0622955
0.0613093
0.0609591
0.0591792
25.7126
7.62405
0.478275
0.0791264
0.0438897
0.0398616
0.0394023
0.0393456
0.0392927
0.0388148
32.0015
15.8815
2.74222
0.404093
0.119623
0.0856116
0.0816814
0.0812198
0.0809771
0.0795241
36.8969
23.9706
6.66514
1.05019
0.237288
0.13639
0.124579
0.123198
0.122621
0.120208
40.8788
28.0686
10.9801
1.97362
0.391151
0.185228
0.160685
0.157809
0.156824
0.153736
44.2557
29.9278
14.6096
3.04083
0.564617
0.22737
0.186497
0.18168
0.180278
0.176718
47.1096
30.9969
16.9407
4.01684
0.72274
0.256681
0.199526
0.192749
0.190987
0.187016
49.3178
31.9799
18.1206
4.61321
0.814089
0.26542
0.19787
0.189828
0.187863
0.183597
50.3969
32.8697
18.0548
4.47219
0.767946
0.241504
0.177308
0.169674
0.16783
0.163613
49.0376
32.4583
15.5006
3.24537
0.529755
0.172843
0.130742
0.125779
0.124522
0.121014
40.3775
28.0575
10.8036
1.32533
0.171131
0.0708183
0.0606822
0.0595138
0.0591345
0.0573469
25.9455
7.73357
0.485259
0.0794864
0.0436823
0.0395627
0.0390871
0.0390275
0.0389735
0.038494
32.2638
16.0156
2.77206
0.408519
0.119759
0.0850029
0.0809366
0.0804517
0.0802043
0.0787469
37.2078
24.1714
6.72703
1.06368
0.238852
0.135776
0.123563
0.122114
0.121525
0.119108
41.2459
28.3646
11.0784
2.00115
0.395303
0.18483
0.159445
0.156426
0.155422
0.152346
44.6851
30.3201
14.759
3.08648
0.572391
0.227281
0.184962
0.1799
0.178472
0.174956
47.6041
31.4701
17.1468
4.08236
0.734672
0.256931
0.197654
0.190521
0.188723
0.184826
49.874
32.5035
18.3613
4.69502
0.829657
0.265973
0.195746
0.18726
0.185246
0.18106
51.0034
33.4026
18.2897
4.5581
0.784524
0.242095
0.175124
0.167037
0.165137
0.160973
49.6759
32.9647
15.7091
3.31351
0.541398
0.172752
0.128716
0.123441
0.12214
0.118641
41.0119
28.566
11.0772
1.37518
0.174471
0.0700213
0.0593917
0.0581458
0.0577529
0.0559671
23.9604
6.53353
0.414419
0.0747402
0.0438753
0.0402617
0.0398328
0.0397767
0.039724
0.0392494
30.3211
14.5687
2.41642
0.366812
0.119455
0.0893115
0.0856909
0.0852406
0.0849961
0.0835473
35.1288
22.4451
5.8509
0.925045
0.230579
0.143265
0.132684
0.13138
0.130816
0.128468
39.0489
26.6342
9.69858
1.70725
0.365629
0.190063
0.168508
0.165859
0.164929
0.16202
42.3934
28.6721
13.0709
2.6169
0.514194
0.227267
0.191525
0.18712
0.185817
0.182513
45.2302
29.8945
15.3643
3.46138
0.649951
0.251771
0.201569
0.195349
0.193708
0.190017
47.4233
30.9364
16.5437
3.98282
0.729013
0.257795
0.198
0.190547
0.188693
0.184686
48.4913
31.748
16.3964
3.86023
0.689601
0.234683
0.177169
0.16997
0.168191
0.164147
47.162
31.1182
13.7851
2.79365
0.481184
0.170002
0.131521
0.126696
0.125433
0.121956
38.6305
26.4229
9.25927
1.11613
0.156815
0.069318
0.0598954
0.058727
0.058335
0.0565433
4.98527
1.61573
0.324113
0.0985541
0.0604849
0.0545653
0.0537234
0.0536007
0.0535106
0.0528747
10.585
5.8199
1.6351
0.409677
0.181371
0.145263
0.140105
0.139371
0.138963
0.136842
14.1224
8.40155
2.73646
0.670292
0.261282
0.195867
0.18649
0.185162
0.184516
0.181673
17.3829
10.6968
3.80647
0.920468
0.31914
0.221502
0.207372
0.205371
0.204533
0.201363
20.6666
13.1442
5.10791
1.23824
0.379057
0.236567
0.215652
0.212677
0.211615
0.208165
23.2994
15.2604
6.42147
1.58677
0.438231
0.243672
0.214733
0.210587
0.209278
0.205538
24.9746
16.6124
7.40738
1.87997
0.482914
0.241757
0.205473
0.200225
0.198692
0.194661
25.3594
16.8736
7.69475
1.98603
0.487172
0.225836
0.186231
0.180442
0.178805
0.174573
23.8475
15.9412
7.04809
1.77351
0.419409
0.187143
0.152066
0.146894
0.145416
0.141334
18.063
12.523
3.81905
0.688474
0.161769
0.0855384
0.0744979
0.0728537
0.0722997
0.0702199
0.33999
0.34812
0.354545
0.359848
0.364427
0.368664
0.372927
0.377582
0.382992
0.389513
0.375534
0.375664
0.37567
0.375585
0.375408
0.375118
0.374683
0.374047
0.373135
0.371863
0.376286
0.376179
0.376046
0.375869
0.375637
0.375328
0.374915
0.37436
0.373611
0.372628
0.375855
0.375871
0.375834
0.375737
0.375578
0.375346
0.375023
0.374578
0.373966
0.373147
0.375351
0.375512
0.375588
0.375585
0.375512
0.375369
0.375146
0.374817
0.374346
0.373697
0.374788
0.375111
0.375316
0.375423
0.375449
0.375406
0.375289
0.375082
0.374755
0.37428
0.374159
0.374666
0.375021
0.375253
0.375393
0.375458
0.375453
0.37537
0.375189
0.374891
0.373458
0.374176
0.374705
0.375082
0.375347
0.375527
0.375636
0.375676
0.375641
0.375524
0.372598
0.373599
0.374338
0.374873
0.37526
0.375536
0.375728
0.37585
0.375907
0.375893
0.381028
0.378366
0.376101
0.374099
0.37221
0.370279
0.368142
0.365622
0.362531
0.358681
0.546453
0.487562
0.444235
0.41138
0.384725
0.360314
0.334554
0.304123
0.265879
0.216666
0.365624
0.373866
0.376891
0.377446
0.37682
0.375517
0.373526
0.370383
0.365049
0.355585
0.374748
0.374951
0.375061
0.375098
0.375081
0.375022
0.374925
0.374782
0.374583
0.374338
0.3752
0.375139
0.375101
0.375074
0.375054
0.37504
0.375031
0.375027
0.375027
0.37505
0.37519
0.375128
0.375093
0.375068
0.375053
0.375045
0.375044
0.375049
0.375063
0.375099
0.37516
0.375107
0.375078
0.37506
0.37505
0.375047
0.375052
0.375064
0.375085
0.37513
0.375125
0.375081
0.375061
0.37505
0.375046
0.37505
0.37506
0.375079
0.375108
0.375162
0.374999
0.374999
0.375012
0.375025
0.375037
0.37505
0.375066
0.375084
0.375105
0.375141
0.369557
0.372328
0.373814
0.37464
0.375107
0.375351
0.37538
0.375064
0.374073
0.37176
0.290459
0.317102
0.337593
0.353819
0.367463
0.380263
0.394023
0.410634
0.432045
0.460061
0.774356
0.620803
0.515258
0.440407
0.382883
0.331781
0.278449
0.21603
0.138733
0.0368266
0.347964
0.386972
0.396563
0.394002
0.386716
0.37728
0.365487
0.348866
0.321919
0.273966
0.368334
0.373071
0.375546
0.376391
0.376145
0.375121
0.373377
0.370745
0.366903
0.361584
0.37438
0.374728
0.374948
0.375052
0.375055
0.37497
0.374804
0.374557
0.374227
0.373841
0.375122
0.375091
0.375072
0.375058
0.375046
0.375036
0.375028
0.375022
0.37502
0.375035
0.375162
0.375112
0.375082
0.375062
0.375052
0.37505
0.375057
0.375072
0.375097
0.375142
0.375028
0.375021
0.375024
0.37503
0.375037
0.375045
0.375054
0.375066
0.37508
0.375108
0.373047
0.373819
0.374356
0.374722
0.374952
0.375068
0.375068
0.374924
0.374592
0.374043
0.342519
0.358411
0.367113
0.372205
0.37538
0.377397
0.378283
0.377247
0.372247
0.359056
0.177131
0.238443
0.28535
0.32265
0.354204
0.384035
0.416537
0.456587
0.509467
0.580326
1.00199
0.719879
0.547754
0.439249
0.36302
0.297762
0.229902
0.152616
0.067998
2.22045e-16
0.387336
0.457607
0.454993
0.43102
0.40359
0.377012
0.349531
0.314907
0.259263
0.152048
0.358096
0.380856
0.389441
0.389397
0.384863
0.377848
0.368507
0.355461
0.336067
0.307276
0.369151
0.37372
0.376249
0.377077
0.376646
0.375269
0.373031
0.369818
0.365428
0.35983
0.373756
0.37447
0.374933
0.375149
0.375139
0.37493
0.374538
0.373969
0.373234
0.37239
0.374611
0.374763
0.374877
0.374955
0.374991
0.374986
0.374939
0.374856
0.374744
0.374627
0.372892
0.373629
0.374182
0.374597
0.374876
0.375024
0.375039
0.374905
0.37461
0.374174
0.359819
0.365866
0.370028
0.372886
0.374781
0.375909
0.376242
0.375507
0.37322
0.368934
0.279773
0.324917
0.34988
0.365205
0.375858
0.384094
0.390132
0.391749
0.382569
0.348179
0.0547158
0.152595
0.226048
0.284737
0.334571
0.381974
0.434646
0.501934
0.594862
0.725387
1.19233
0.753927
0.529943
0.410868
0.335259
0.269057
0.194168
0.105032
0.0192332
2.22045e-16
0.501778
0.565701
0.516585
0.455129
0.403569
0.361361
0.322173
0.276347
0.201765
0.0572161
0.374521
0.425719
0.431794
0.418399
0.399564
0.380046
0.359005
0.331447
0.287699
0.213921
0.364102
0.383475
0.390815
0.390212
0.385369
0.37823
0.368947
0.356198
0.337704
0.311448
0.368339
0.374446
0.377742
0.378667
0.37786
0.375778
0.372535
0.367935
0.361687
0.353784
0.368713
0.371625
0.373661
0.374881
0.375351
0.375153
0.374312
0.3728
0.370607
0.367864
0.358332
0.364622
0.369264
0.372607
0.374847
0.37613
0.376421
0.375489
0.373011
0.368859
0.316138
0.340672
0.357005
0.368054
0.375801
0.381336
0.384605
0.38421
0.377301
0.360382
0.179432
0.271864
0.321108
0.351783
0.374989
0.395833
0.415533
0.430292
0.426154
0.366181
2.22045e-16
0.0720923
0.166398
0.243044
0.308026
0.369582
0.439489
0.534071
0.675165
0.890183
1.30054
0.708475
0.4749
0.378212
0.323278
0.268471
0.193546
0.091915
2.22045e-16
2.22045e-16
0.6475
0.6425
0.528788
0.441144
0.383149
0.33925
0.296695
0.245907
0.16538
0.00244274
0.435307
0.497453
0.474493
0.434281
0.399006
0.370376
0.343397
0.309043
0.248753
0.125798
0.376521
0.417478
0.421569
0.409672
0.394048
0.37857
0.361974
0.339313
0.301771
0.238165
0.360585
0.382446
0.390588
0.390116
0.3855
0.378878
0.370104
0.357216
0.337162
0.30756
0.347259
0.363644
0.373594
0.378519
0.380058
0.379251
0.376102
0.36966
0.358542
0.342121
0.315378
0.341825
0.3596
0.371126
0.378627
0.383473
0.38565
0.383548
0.374191
0.354726
0.2394
0.301275
0.338499
0.36203
0.379219
0.39393
0.406653
0.413546
0.404385
0.362274
0.0925346
0.22535
0.293031
0.33442
0.36839
0.403329
0.443228
0.485586
0.509174
0.438476
2.22045e-16
0.0480341
0.132678
0.213951
0.284196
0.349655
0.42561
0.538127
0.728868
1.06074
1.28068
0.589578
0.4082
0.361084
0.338693
0.305613
0.242779
0.135959
0.00574406
2.22045e-16
0.755022
0.628607
0.478443
0.404866
0.368347
0.3394
0.302031
0.247542
0.163752
2.22045e-16
0.512752
0.538042
0.470274
0.416543
0.384149
0.36146
0.338147
0.305106
0.242594
0.0849843
0.406546
0.454521
0.436954
0.40983
0.389175
0.374044
0.359076
0.336143
0.288808
0.184808
0.354233
0.397813
0.404155
0.396981
0.388373
0.381044
0.372752
0.3575
0.324481
0.260058
0.311586
0.357138
0.377444
0.384093
0.385868
0.386566
0.385657
0.378505
0.356346
0.309772
0.251679
0.317725
0.353096
0.371439
0.383007
0.393208
0.402898
0.407448
0.394487
0.345128
0.154911
0.266996
0.322611
0.353255
0.376008
0.399299
0.426646
0.454428
0.461887
0.39587
0.0284768
0.188115
0.26513
0.311437
0.350108
0.391232
0.444557
0.517823
0.596162
0.559969
2.22045e-16
0.0154026
0.107415
0.199659
0.272029
0.330683
0.394584
0.500652
0.721593
1.19687
1.1212
0.441837
0.363055
0.363358
0.365069
0.355522
0.321975
0.23754
0.0775909
2.22045e-16
0.767994
0.522708
0.406126
0.378428
0.371327
0.363047
0.342054
0.294626
0.206731
0.0255076
0.559524
0.501109
0.418535
0.386511
0.37601
0.369376
0.357289
0.331069
0.27481
0.103919
0.437203
0.453577
0.412211
0.388283
0.378987
0.374872
0.369495
0.355718
0.315259
0.184985
0.358002
0.405953
0.397039
0.385257
0.380166
0.379663
0.380387
0.376142
0.348589
0.253498
0.290894
0.362633
0.378011
0.378495
0.379332
0.38377
0.391652
0.398419
0.385571
0.310903
0.214511
0.319636
0.355231
0.367349
0.375423
0.386394
0.403806
0.426803
0.436353
0.370585
0.117504
0.268986
0.323153
0.347974
0.36549
0.384623
0.413777
0.460754
0.512677
0.46624
0.0164641
0.1895
0.265299
0.311152
0.34372
0.371804
0.409939
0.48261
0.612274
0.68065
2.22045e-16
0.0239836
0.142379
0.241432
0.302648
0.33795
0.366719
0.426377
0.617236
1.21873
0.864752
0.350125
0.362519
0.37233
0.374576
0.374388
0.36952
0.340495
0.213043
2.22045e-16
0.676405
0.405947
0.373161
0.373843
0.374767
0.374684
0.371697
0.354283
0.285456
0.0725784
0.544204
0.417663
0.378841
0.374806
0.374885
0.375007
0.373737
0.364894
0.327152
0.159367
0.44954
0.409371
0.380198
0.375084
0.374886
0.375367
0.375841
0.37392
0.355443
0.231033
0.376375
0.392351
0.377925
0.37445
0.374652
0.375701
0.378024
0.382489
0.379909
0.292567
0.310234
0.37074
0.372195
0.37254
0.373991
0.375868
0.380152
0.391378
0.406691
0.351605
0.239364
0.344016
0.36205
0.368699
0.372598
0.375592
0.381696
0.400201
0.439455
0.421611
0.156622
0.306716
0.344588
0.361803
0.370032
0.374395
0.381343
0.405814
0.476872
0.526635
0.0658686
0.242599
0.31377
0.350232
0.365802
0.37163
0.376649
0.399413
0.501052
0.709769
2.22045e-16
0.111607
0.260114
0.332554
0.359727
0.366804
0.364495
0.363781
0.437892
1.04694
0.566984
0.360281
0.374211
0.374827
0.374744
0.374634
0.3745
0.373457
0.349116
0.188525
0.504066
0.371299
0.374666
0.374976
0.37492
0.374843
0.374754
0.374141
0.361686
0.242009
0.455043
0.376028
0.374959
0.375099
0.375068
0.37502
0.374969
0.374705
0.36929
0.284757
0.415252
0.377185
0.375082
0.375183
0.375182
0.375158
0.37514
0.375177
0.374469
0.320628
0.380294
0.376044
0.374999
0.375219
0.375258
0.375258
0.375268
0.375561
0.378561
0.353115
0.345358
0.372951
0.374634
0.375191
0.37529
0.375315
0.375346
0.375821
0.382215
0.386587
0.305393
0.367348
0.373847
0.375069
0.375264
0.37532
0.375359
0.37585
0.38525
0.42682
0.255128
0.357445
0.372404
0.374812
0.375157
0.375253
0.375272
0.37541
0.385974
0.481631
0.188877
0.339274
0.369979
0.374367
0.374934
0.375083
0.37504
0.374089
0.379428
0.561438
0.0980739
0.304586
0.366285
0.373701
0.374564
0.374781
0.374623
0.371393
0.353248
0.679393
0.272899
0.366069
0.373096
0.373523
0.373861
0.374201
0.374544
0.374825
0.371044
0.468781
0.30228
0.370322
0.373933
0.374222
0.374457
0.374693
0.374931
0.375133
0.374038
0.437823
0.325664
0.373006
0.374613
0.374791
0.374943
0.375095
0.375247
0.375375
0.375422
0.413098
0.345086
0.374838
0.37515
0.375235
0.375318
0.375401
0.37548
0.375536
0.375842
0.392494
0.362475
0.3762
0.37556
0.375565
0.375587
0.375606
0.375621
0.375592
0.375574
0.373885
0.380203
0.377274
0.375851
0.375782
0.375741
0.375697
0.375644
0.375502
0.374637
0.354807
0.40125
0.378
0.376008
0.375874
0.375758
0.375638
0.375505
0.3752
0.372774
0.33249
0.429403
0.3779
0.375987
0.375805
0.375592
0.375373
0.375135
0.374581
0.369341
0.303828
0.469379
0.375655
0.375708
0.375517
0.375171
0.374814
0.37443
0.373501
0.363031
0.265343
0.526589
0.368183
0.375065
0.374934
0.374403
0.373856
0.373274
0.37181
0.351341
0.213024
0.183774
0.348018
0.373936
0.37505
0.375102
0.375121
0.375104
0.374281
0.3591
0.576203
0.238749
0.361111
0.374379
0.375037
0.375071
0.375085
0.375072
0.374633
0.37089
0.510526
0.282718
0.368973
0.374754
0.37504
0.375056
0.375063
0.375046
0.374825
0.375898
0.459529
0.319672
0.37431
0.375085
0.375048
0.375048
0.375048
0.375018
0.374859
0.377076
0.418294
0.353207
0.378556
0.375369
0.375059
0.375045
0.375038
0.374979
0.374701
0.375831
0.382225
0.387834
0.382408
0.37557
0.375066
0.375048
0.375031
0.374919
0.374278
0.372569
0.346324
0.429539
0.385682
0.375568
0.375056
0.375055
0.375026
0.374821
0.373453
0.366744
0.305384
0.48647
0.386574
0.375109
0.375012
0.375066
0.375022
0.374668
0.372001
0.356506
0.254007
0.569579
0.379752
0.373748
0.374907
0.375082
0.37502
0.374443
0.369606
0.337692
0.18639
0.692826
0.351824
0.370944
0.374736
0.375114
0.375035
0.374169
0.366012
0.301555
0.0936136
0.0774531
0.303146
0.367876
0.374586
0.375092
0.375095
0.374722
0.370888
0.345876
0.699659
0.161125
0.336447
0.370752
0.374761
0.375069
0.37506
0.374822
0.373177
0.374411
0.586978
0.226709
0.356484
0.373122
0.374952
0.375059
0.375025
0.374845
0.374468
0.384525
0.502429
0.281197
0.370481
0.375245
0.375162
0.375056
0.374981
0.374773
0.374817
0.384827
0.436839
0.329657
0.382438
0.377238
0.375371
0.375052
0.374914
0.374546
0.374159
0.379538
0.381875
0.37867
0.394693
0.37907
0.375529
0.375034
0.374804
0.374075
0.372271
0.370132
0.329062
0.437867
0.407772
0.380318
0.37552
0.374977
0.374624
0.373218
0.368612
0.355782
0.270308
0.521848
0.418639
0.379791
0.375125
0.374848
0.374342
0.371787
0.362143
0.332714
0.19827
0.652673
0.415356
0.375045
0.374015
0.374608
0.373936
0.369575
0.351197
0.291554
0.106388
0.86267
0.362513
0.362438
0.371889
0.37425
0.373435
0.36654
0.333896
0.210432
2.22045e-16
2.22045e-16
0.225109
0.345118
0.370439
0.374478
0.374684
0.372807
0.363457
0.346713
0.844754
0.0816597
0.292231
0.356802
0.372116
0.374674
0.374791
0.373943
0.372481
0.399154
0.6664
0.166453
0.331075
0.365915
0.373716
0.374885
0.374826
0.374609
0.377306
0.411339
0.540114
0.236438
0.357545
0.373731
0.375376
0.375118
0.374757
0.374711
0.378452
0.404776
0.44874
0.296821
0.38047
0.381177
0.377106
0.375327
0.374491
0.374045
0.37643
0.389726
0.377435
0.355261
0.405484
0.38886
0.378791
0.375409
0.373874
0.372289
0.37129
0.370008
0.312609
0.424887
0.435745
0.396336
0.379979
0.375153
0.372672
0.368876
0.362088
0.345103
0.243057
0.528674
0.469391
0.400687
0.379573
0.374197
0.370554
0.362869
0.346168
0.309714
0.161703
0.706925
0.488728
0.394057
0.37554
0.372046
0.367166
0.352963
0.318178
0.248287
0.0711386
1.02906
0.424324
0.361537
0.365331
0.368328
0.36242
0.338106
0.269997
0.121725
2.22045e-16
2.22045e-16
0.133833
0.291534
0.351192
0.368651
0.371727
0.367696
0.357164
0.384246
1.00609
0.051624
0.24177
0.324706
0.35964
0.370821
0.373377
0.373773
0.382498
0.45937
0.735237
0.12953
0.29924
0.348023
0.366767
0.372846
0.374636
0.377421
0.3931
0.460048
0.560302
0.203501
0.335399
0.365745
0.373279
0.374845
0.375398
0.37852
0.392855
0.434004
0.446468
0.267974
0.3661
0.38163
0.379678
0.376742
0.375411
0.377089
0.385703
0.400917
0.365792
0.32716
0.400909
0.398848
0.38632
0.378279
0.374255
0.372946
0.373847
0.366637
0.295648
0.395012
0.447356
0.418857
0.392704
0.378731
0.371093
0.365109
0.356855
0.330012
0.219282
0.502185
0.509815
0.438426
0.396118
0.376457
0.364382
0.351051
0.330309
0.284465
0.127885
0.713934
0.573633
0.442031
0.389615
0.368552
0.351795
0.325978
0.282547
0.209461
0.0335684
1.16733
0.533316
0.38874
0.361378
0.351642
0.331208
0.28357
0.190488
0.0545448
2.22045e-16
2.22045e-16
0.0525658
0.207868
0.301761
0.344086
0.358841
0.360733
0.368957
0.474595
1.16762
0.0135957
0.191255
0.278489
0.32968
0.355884
0.368799
0.381564
0.42026
0.551037
0.77133
0.0928361
0.263286
0.321286
0.349856
0.36525
0.375635
0.391254
0.430496
0.514316
0.55033
0.178007
0.305024
0.348434
0.364816
0.372663
0.379457
0.391997
0.418642
0.456134
0.429038
0.248655
0.338963
0.369905
0.377329
0.378664
0.380741
0.387094
0.398646
0.403652
0.355147
0.305012
0.375715
0.39325
0.390203
0.383881
0.379905
0.378808
0.376709
0.358911
0.293331
0.359942
0.426081
0.424276
0.405062
0.388026
0.376221
0.366893
0.352762
0.315659
0.220014
0.447543
0.50543
0.464787
0.419504
0.387979
0.366226
0.346928
0.320636
0.265029
0.121849
0.658007
0.620257
0.498298
0.420007
0.374813
0.341799
0.307131
0.261777
0.186476
0.0150211
1.23579
0.653508
0.446272
0.371494
0.332779
0.290712
0.225461
0.12738
0.017854
2.22045e-16
2.22045e-16
2.22045e-16
0.123524
0.230711
0.296586
0.333465
0.360601
0.415272
0.607085
1.28297
2.22045e-16
0.160259
0.243005
0.296765
0.335359
0.3671
0.407617
0.485046
0.631775
0.737064
0.0853043
0.239783
0.30232
0.335413
0.359438
0.383596
0.417494
0.470559
0.531492
0.497594
0.187299
0.28663
0.333329
0.356582
0.372051
0.38765
0.408147
0.433356
0.446949
0.399354
0.262766
0.322506
0.35422
0.369687
0.378396
0.385832
0.393962
0.400075
0.39335
0.354557
0.311158
0.353337
0.374307
0.38192
0.383481
0.383067
0.381227
0.374776
0.356587
0.318323
0.343555
0.388797
0.40198
0.398987
0.390567
0.381045
0.369883
0.352512
0.320491
0.263841
0.388292
0.452393
0.448791
0.424346
0.398757
0.376277
0.354113
0.324527
0.271991
0.16996
0.542635
0.587169
0.517358
0.447278
0.394406
0.353315
0.3153
0.270317
0.195262
0.0385587
1.18965
0.731116
0.510813
0.400973
0.333797
0.273606
0.201704
0.111803
0.0217498
2.22045e-16
2.22045e-16
2.22045e-16
0.0888921
0.186496
0.262249
0.321632
0.384199
0.489942
0.723609
1.26145
0.0134199
0.171572
0.250964
0.300012
0.34188
0.386452
0.44436
0.525577
0.617675
0.594073
0.146044
0.255597
0.312292
0.345397
0.371113
0.397521
0.428029
0.458973
0.469689
0.408183
0.257029
0.309136
0.34131
0.361578
0.376319
0.389244
0.401035
0.408293
0.40197
0.368821
0.320644
0.342734
0.358109
0.368479
0.375634
0.380785
0.383999
0.383904
0.377854
0.363337
0.349847
0.360948
0.368604
0.373342
0.375834
0.376592
0.375651
0.372539
0.366547
0.357399
0.358297
0.371821
0.378653
0.380578
0.379363
0.376045
0.37073
0.362736
0.350981
0.334813
0.358752
0.392494
0.401914
0.398417
0.38944
0.378104
0.364303
0.345372
0.316271
0.270622
0.411922
0.48217
0.469935
0.437259
0.403796
0.373224
0.342814
0.305263
0.244248
0.12321
1.01764
0.721424
0.544604
0.435584
0.360148
0.295613
0.227829
0.149913
0.0649666
2.22045e-16
2.22045e-16
0.0591448
0.142717
0.221078
0.289919
0.355572
0.431957
0.541739
0.719262
1.01355
0.13387
0.247212
0.306491
0.343114
0.372331
0.400985
0.431316
0.459295
0.466119
0.395288
0.291449
0.326915
0.349887
0.365172
0.376141
0.384601
0.390536
0.3917
0.383149
0.35808
0.35299
0.3611
0.367073
0.371417
0.374479
0.376482
0.377367
0.376753
0.374049
0.368835
0.370324
0.371835
0.373022
0.373945
0.374605
0.375011
0.375149
0.374984
0.374482
0.373663
0.374058
0.374359
0.374591
0.374766
0.374875
0.374919
0.374897
0.374811
0.374668
0.374495
0.373603
0.37434
0.374794
0.375001
0.374994
0.374804
0.374446
0.373916
0.373214
0.372381
0.367227
0.372908
0.375788
0.37666
0.376203
0.374808
0.372536
0.369164
0.364284
0.357568
0.34804
0.386392
0.395822
0.393217
0.385908
0.376437
0.364591
0.347895
0.320844
0.272675
0.754215
0.611049
0.511316
0.439742
0.384262
0.334752
0.282952
0.22203
0.145761
0.0435309
0.217326
0.265906
0.303271
0.332837
0.357571
0.380621
0.40538
0.435556
0.475109
0.527941
0.356057
0.365583
0.370845
0.37389
0.375711
0.376766
0.377101
0.376295
0.37324
0.365686
0.373834
0.374598
0.37514
0.375466
0.375602
0.375565
0.375358
0.374965
0.374356
0.373555
0.374341
0.374904
0.375318
0.37556
0.375644
0.375582
0.375376
0.375021
0.374506
0.373872
0.374235
0.374827
0.375272
0.375544
0.375655
0.375615
0.375425
0.375081
0.374571
0.373934
0.374106
0.374725
0.375203
0.375508
0.375652
0.375641
0.375478
0.375154
0.374659
0.374026
0.373982
0.374619
0.375123
0.375458
0.375633
0.375656
0.375525
0.375232
0.374764
0.37415
0.37384
0.374502
0.375033
0.375394
0.375599
0.375653
0.375552
0.375287
0.374842
0.37424
0.370661
0.373454
0.374901
0.375586
0.375817
0.375719
0.375286
0.374386
0.372734
0.369832
0.453994
0.427915
0.408235
0.392898
0.380122
0.368138
0.355228
0.33971
0.319943
0.294415
)
;

boundaryField
{
    inlet
    {
        type            fixedValue;
        value           uniform 0.375;
    }
    outlet
    {
        type            zeroGradient;
    }
    walls
    {
        type            kqRWallFunction;
        value           nonuniform List<scalar> 
400
(
8.57724
13.5216
17.8375
21.5062
24.3516
26.4861
27.8757
28.1208
25.9976
18.0755
1.28245
4.12403
6.98755
9.89819
12.3834
14.2519
15.3739
15.3664
13.3484
9.06637
0.0861389
0.292225
0.563574
0.92509
1.33618
1.72325
1.9834
1.97995
1.58623
0.985775
0.0408265
0.068186
0.0911144
0.118866
0.150988
0.181326
0.199208
0.192047
0.151699
0.0930997
0.0383864
0.0556101
0.0621253
0.0659334
0.0688756
0.0707677
0.0705343
0.0668177
0.0586694
0.0461358
0.0382061
0.0546534
0.059812
0.0615214
0.0617734
0.0609719
0.0590968
0.0559622
0.05114
0.0430339
0.0381912
0.054571
0.0596077
0.0611206
0.061111
0.0600397
0.0579995
0.0549296
0.0504455
0.0427671
0.0381876
0.0545596
0.0595833
0.0610758
0.0610388
0.059939
0.0578809
0.0548172
0.0503674
0.042732
0.0381656
0.054517
0.0595248
0.0610014
0.060949
0.0598366
0.0577721
0.0547109
0.0502743
0.0426607
0.0377995
0.0538161
0.0586999
0.0601023
0.0599966
0.0588496
0.0567709
0.0537187
0.0493239
0.0418077
4.98527
10.585
14.1224
17.3829
20.6666
23.2994
24.9746
25.3594
23.8475
18.063
1.61573
5.8199
8.40155
10.6968
13.1442
15.2604
16.6124
16.8736
15.9412
12.523
0.324113
1.6351
2.73646
3.80647
5.10791
6.42147
7.40738
7.69475
7.04809
3.81905
0.0985541
0.409677
0.670292
0.920468
1.23824
1.58677
1.87997
1.98603
1.77351
0.688474
0.0604849
0.181371
0.261282
0.31914
0.379057
0.438231
0.482914
0.487172
0.419409
0.161769
0.0545653
0.145263
0.195867
0.221502
0.236567
0.243672
0.241757
0.225836
0.187143
0.0855384
0.0537234
0.140105
0.18649
0.207372
0.215652
0.214733
0.205473
0.186231
0.152066
0.0744979
0.0536007
0.139371
0.185162
0.205371
0.212677
0.210587
0.200225
0.180442
0.146894
0.0728537
0.0535106
0.138963
0.184516
0.204533
0.211615
0.209278
0.198692
0.178805
0.145416
0.0722997
0.0528747
0.136842
0.181673
0.201363
0.208165
0.205538
0.194661
0.174573
0.141334
0.0702199
8.57724
15.8812
19.8589
22.2001
23.759
24.8994
25.7126
25.9455
23.9604
4.98527
1.28245
2.89991
4.60959
5.80374
6.61003
7.19804
7.62405
7.73357
6.53353
1.61573
0.0861389
0.170416
0.270566
0.351481
0.408618
0.449401
0.478275
0.485259
0.414419
0.324113
0.0408265
0.0500216
0.0588192
0.0666601
0.072567
0.0765945
0.0791264
0.0794864
0.0747402
0.0985541
0.0383864
0.0420481
0.0431136
0.0436553
0.0439249
0.0439777
0.0438897
0.0436823
0.0438753
0.0604849
0.0382061
0.0413821
0.0416677
0.0413472
0.0408555
0.0403316
0.0398616
0.0395627
0.0402617
0.0545653
0.0381912
0.0413229
0.0415308
0.0411142