/*--------------------------------*- C++ -*----------------------------------*\
  =========                 |
  \\      /  F ield         | OpenFOAM: The Open Source CFD Toolbox
   \\    /   O peration     | Website:  https://openfoam.org
    \\  /    A nd           | Version:  13
     \\/     M anipulation  |
\*---------------------------------------------------------------------------*/
FoamFile
{
    format      ascii;
    class       volScalarField;
    location    "2";
    object      nut;
}
// * * * * * * * * * * * * * * * * * * * * * * * * * * * * * * * * * * * * * //

dimensions      [0 2 -1 0 0 0 0];

internalField   nonuniform List<scalar> 
3000
(
0.000138917
1.11734e-05
1.11296e-07
2.91664e-08
2.61694e-08
2.59528e-08
2.59346e-08
2.59312e-08
2.59127e-08
2.55064e-08
0.000743394
0.000277594
3.06162e-06
1.92446e-07
1.29745e-07
1.25446e-07
1.25077e-07
1.25031e-07
1.24885e-07
1.22073e-07
0.00107765
0.000694214
1.07511e-05
3.34427e-07
1.58222e-07
1.46862e-07
1.45876e-07
1.45765e-07
1.45539e-07
1.41971e-07
0.00135583
0.00120552
2.72628e-05
5.58907e-07
1.76102e-07
1.53633e-07
1.51663e-07
1.51451e-07
1.51151e-07
1.47187e-07
0.00155966
0.00165654
5.35252e-05
8.9036e-07
1.91301e-07
1.54335e-07
1.5108e-07
1.50737e-07
1.50369e-07
1.46174e-07
0.00170679
0.00197343
8.41679e-05
1.27287e-06
2.02135e-07
1.50671e-07
1.46154e-07
1.45681e-07
1.45265e-07
1.40985e-07
0.0018084
0.00213612
0.000106576
1.52882e-06
2.01872e-07
1.42505e-07
1.37337e-07
1.36797e-07
1.3637e-07
1.3216e-07
0.00185874
0.00208642
0.000103461
1.42066e-06
1.82848e-07
1.2919e-07
1.24562e-07
1.24077e-07
1.23687e-07
1.19718e-07
0.0018065
0.001656
6.62689e-05
8.909e-07
1.42824e-07
1.09497e-07
1.06654e-07
1.0635e-07
1.06047e-07
1.02535e-07
0.00130913
0.000854604
2.57716e-05
3.38131e-07
8.97748e-08
7.89804e-08
7.81118e-08
7.80084e-08
7.78243e-08
7.51249e-08
0.000295979
4.9113e-05
4.25698e-07
4.34837e-08
3.12078e-08
3.02611e-08
3.0177e-08
3.01667e-08
3.01388e-08
2.96442e-08
0.0014187
0.000774076
6.82471e-05
2.19386e-06
7.5112e-07
6.60597e-07
6.52658e-07
6.51817e-07
6.50602e-07
6.36138e-07
0.00395171
0.00313926
0.000567243
1.43456e-05
2.61973e-06
2.01939e-06
1.96786e-06
1.96254e-06
1.95681e-06
1.91422e-06
0.00650896
0.00597771
0.00140129
3.94529e-05
4.42851e-06
2.90126e-06
2.77327e-06
2.76032e-06
2.75041e-06
2.6957e-06
0.00810968
0.0079768
0.00226835
7.83041e-05
6.15752e-06
3.36552e-06
3.1386e-06
3.11582e-06
3.10244e-06
3.0406e-06
0.00885092
0.00896091
0.00296608
0.000125664
7.81369e-06
3.60479e-06
3.27432e-06
3.24123e-06
3.22473e-06
3.15451e-06
0.00897866
0.00907497
0.00323324
0.000159461
8.71027e-06
3.57855e-06
3.18735e-06
3.14827e-06
3.13047e-06
3.05477e-06
0.00849679
0.00822616
0.00279899
0.000144934
7.69781e-06
3.11741e-06
2.77252e-06
2.7382e-06
2.72278e-06
2.64977e-06
0.00696013
0.00567242
0.0014792
6.60074e-05
3.99314e-06
1.87626e-06
1.71426e-06
1.69821e-06
1.69011e-06
1.63796e-06
0.00305638
0.00333091
0.000296095
3.65577e-06
3.317e-07
2.26357e-07
2.18273e-07
2.17435e-07
2.1661e-07
2.0748e-07
0.000373584
0.000104355
1.02282e-06
6.00331e-08
3.29352e-08
3.08116e-08
3.06129e-08
3.05903e-08
3.05535e-08
3.00239e-08
0.00182144
0.00114043
0.000196499
5.50816e-06
1.08177e-06
8.34169e-07
8.12004e-07
8.09675e-07
8.07385e-07
7.88008e-07
0.00626449
0.00531997
0.00190785
5.76059e-05
5.84567e-06
3.59941e-06
3.40878e-06
3.389e-06
3.37296e-06
3.29617e-06
0.0135665
0.012419
0.0050105
0.000214426
1.43996e-05
6.94343e-06
6.34514e-06
6.28412e-06
6.24782e-06
6.15471e-06
0.0204526
0.0192727
0.00833282
0.000482528
2.5239e-05
9.53781e-06
8.35088e-06
8.23122e-06
8.17764e-06
8.10515e-06
0.0241737
0.0233162
0.0110736
0.000805169
3.66157e-05
1.12083e-05
9.39347e-06
9.21169e-06
9.14252e-06
9.06312e-06
0.0241756
0.0238318
0.0119321
0.00102762
4.37363e-05
1.16303e-05
9.43328e-06
9.21447e-06
9.13799e-06
9.03712e-06
0.0203917
0.0201713
0.00969147
0.000899959
3.76912e-05
9.73419e-06
7.8517e-06
7.66521e-06
7.60229e-06
7.49363e-06
0.0126576
0.0109937
0.00421228
0.000334571
1.46245e-05
4.39429e-06
3.6855e-06
3.61539e-06
3.58997e-06
3.50269e-06
0.00353593
0.00471474
0.000791297
1.16561e-05
5.57688e-07
2.7584e-07
2.55052e-07
2.52932e-07
2.51601e-07
2.40298e-07
0.000425885
0.000147995
1.65452e-06
7.70785e-08
3.39611e-08
3.05304e-08
3.01921e-08
3.01539e-08
3.01096e-08
2.95651e-08
0.00199241
0.0013135
0.0003136
9.55909e-06
1.31721e-06
8.85443e-07
8.45963e-07
8.41748e-07
8.38659e-07
8.17078e-07
0.00708047
0.00617396
0.00298964
0.000117416
8.66715e-06
4.28981e-06
3.92179e-06
3.88303e-06
3.85873e-06
3.7623e-06
0.0168141
0.0155406
0.0079484
0.000483732
2.57165e-05
9.40307e-06
8.14085e-06
8.01016e-06
7.94795e-06
7.82878e-06
0.028153
0.0265567
0.0139785
0.00112889
5.08789e-05
1.40853e-05
1.14603e-05
1.11924e-05
1.10929e-05
1.10161e-05
0.0357039
0.0346123
0.0195165
0.00189139
7.8684e-05
1.73393e-05
1.32672e-05
1.28559e-05
1.27205e-05
1.26116e-05
0.0361766
0.0363727
0.0213012
0.00237007
9.56513e-05
1.81495e-05
1.32648e-05
1.2776e-05
1.26257e-05
1.24584e-05
0.0287856
0.0294249
0.0166388
0.00198493
7.97284e-05
1.45684e-05
1.05398e-05
1.01396e-05
1.0024e-05
9.86258e-06
0.0155838
0.0139206
0.00648411
0.000697781
2.81533e-05
5.88919e-06
4.47013e-06
4.32887e-06
4.2868e-06
4.17484e-06
0.00387485
0.00538539
0.00142504
2.66042e-05
8.66363e-07
3.06287e-07
2.67566e-07
2.63588e-07
2.61757e-07
2.4925e-07
0.000465578
0.000179042
2.16565e-06
9.14111e-08
3.46012e-08
3.00167e-08
2.95437e-08
2.94894e-08
2.94397e-08
2.88896e-08
0.00209767
0.00141002
0.000395375
1.33925e-05
1.50088e-06
8.9687e-07
8.40641e-07
8.34494e-07
8.3084e-07
8.08171e-07
0.00740784
0.00651039
0.00365217
0.000176869
1.10877e-05
4.5908e-06
4.0485e-06
3.9902e-06
3.96002e-06
3.85151e-06
0.017921
0.0166564
0.00966575
0.0007634
3.68164e-05
1.0844e-05
8.88854e-06
8.68246e-06
8.59902e-06
8.45208e-06
0.0309803
0.0294421
0.0174134
0.00181341
7.88957e-05
1.72911e-05
1.30729e-05
1.26365e-05
1.24946e-05
1.23911e-05
0.0403669
0.0396389
0.0248431
0.00304127
0.000127283
2.20738e-05
1.54318e-05
1.47552e-05
1.45551e-05
1.4387e-05
0.0412047
0.042175
0.0272527
0.00376577
0.000156404
2.32633e-05
1.53308e-05
1.45335e-05
1.43107e-05
1.40418e-05
0.0321619
0.0332733
0.0208366
0.00306328
0.000127707
1.81696e-05
1.1789e-05
1.11533e-05
1.09876e-05
1.07469e-05
0.016789
0.0149164
0.00779596
0.00105519
4.36149e-05
6.96596e-06
4.77213e-06
4.5526e-06
4.49527e-06
4.3604e-06
0.00416875
0.00571259
0.00200737
4.66255e-05
1.22261e-06
3.23858e-07
2.6594e-07
2.59931e-07
2.57696e-07
2.4472e-07
0.000496549
0.000202448
2.55697e-06
1.01972e-07
3.49017e-08
2.94519e-08
2.88709e-08
2.88028e-08
2.87493e-08
2.81981e-08
0.00217122
0.00147222
0.000449615
1.64364e-05
1.62737e-06
8.89327e-07
8.19831e-07
8.12064e-07
8.08057e-07
7.84918e-07
0.0075714
0.00667236
0.00403731
0.000224966
1.28723e-05
4.67005e-06
3.99063e-06
3.91623e-06
3.8825e-06
3.76732e-06
0.0183085
0.0170693
0.0105531
0.000995633
4.58689e-05
1.15504e-05
9.02294e-06
8.75269e-06
8.65542e-06
8.48773e-06
0.0318785
0.0304417
0.0190515
0.00238547
0.000103823
1.92637e-05
1.36501e-05
1.3064e-05
1.28938e-05
1.27791e-05
0.0418491
0.0413905
0.027269
0.00398274
0.000172368
2.52607e-05
1.63025e-05
1.53865e-05
1.51454e-05
1.49777e-05
0.0427927
0.0441218
0.0298851
0.00489284
0.000214321
2.68964e-05
1.61633e-05
1.50851e-05
1.48158e-05
1.45323e-05
0.0332632
0.0343576
0.0226025
0.00393553
0.000174855
2.08633e-05
1.22666e-05
1.1412e-05
1.12115e-05
1.0948e-05
0.0173878
0.0152018
0.0083979
0.00134206
5.87294e-05
7.73701e-06
4.82557e-06
4.53427e-06
4.46584e-06
4.32169e-06
0.0044353
0.00595715
0.00248034
6.81837e-05
1.56627e-06
3.30825e-07
2.56407e-07
2.48644e-07
2.46146e-07
2.33241e-07
0.000519007
0.000219723
2.84485e-06
1.08967e-07
3.49488e-08
2.89386e-08
2.82849e-08
2.8207e-08
2.81512e-08
2.76005e-08
0.00221929
0.00151133
0.000484698
1.85628e-05
1.70201e-06
8.75218e-07
7.9698e-07
7.88091e-07
7.83884e-07
7.60572e-07
0.00764512
0.00674622
0.00425612
0.00025889
1.40031e-05
4.64777e-06
3.87927e-06
3.79397e-06
3.75835e-06
3.63966e-06
0.0183976
0.0171997
0.0109861
0.00116234
5.21233e-05
1.18201e-05
8.90502e-06
8.59025e-06
8.4852e-06
8.30364e-06
0.0320416
0.0307206
0.0197327
0.0027933
0.000122314
2.03147e-05
1.3702e-05
1.30079e-05
1.28223e-05
1.27066e-05
0.0421334
0.0418634
0.0281502
0.00462766
0.000206864
2.71167e-05
1.64566e-05
1.53662e-05
1.51054e-05
1.49736e-05
0.0431124
0.0445866
0.0307573
0.0056453
0.0002598
2.91549e-05
1.63118e-05
1.5026e-05
1.47347e-05
1.44952e-05
0.0335698
0.0345193
0.023139
0.00452113
0.000213334
2.26756e-05
1.23425e-05
1.13202e-05
1.11004e-05
1.08556e-05
0.017761
0.0152964
0.00863257
0.00153134
7.0832e-05
8.21584e-06
4.75969e-06
4.41504e-06
4.33999e-06
4.19578e-06
0.00465545
0.00617399
0.00282649
8.70367e-05
1.83926e-06
3.30703e-07
2.44804e-07
2.35824e-07
2.33184e-07
2.20568e-07
0.00052601
0.000223891
2.90919e-06
1.10071e-07
3.47252e-08
2.8602e-08
2.79286e-08
2.78472e-08
2.77906e-08
2.72419e-08
0.00222902
0.00151068
0.000489892
1.90215e-05
1.71362e-06
8.66959e-07
7.86296e-07
7.76999e-07
7.72728e-07
7.49396e-07
0.00758863
0.00667879
0.00425829
0.000266922
1.42847e-05
4.63838e-06
3.84321e-06
3.7538e-06
3.71749e-06
3.59754e-06
0.0181033
0.0169495
0.010902
0.0012056
5.39985e-05
1.19451e-05
8.89996e-06
8.56732e-06
8.45925e-06
8.27316e-06
0.0313808
0.0302129
0.019458
0.00289807
0.000128462
2.0783e-05
1.38026e-05
1.30629e-05
1.28718e-05
1.27648e-05
0.0412161
0.0411406
0.027624
0.0047684
0.000218554
2.78905e-05
1.65877e-05
1.54229e-05
1.51573e-05
1.50668e-05
0.0422866
0.0438291
0.030102
0.00578103
0.000275311
3.00574e-05
1.64059e-05
1.50311e-05
1.4735e-05
1.45487e-05
0.0332238
0.034023
0.0226326
0.00461682
0.000226817
2.3403e-05
1.23841e-05
1.1288e-05
1.10621e-05
1.0845e-05
0.0179126
0.0152131
0.00848011
0.00155309
7.45693e-05
8.34518e-06
4.69908e-06
4.33317e-06
4.25583e-06
4.11417e-06
0.00478619
0.00632024
0.00290875
9.2458e-05
1.90984e-06
3.24576e-07
2.35717e-07
2.26337e-07
2.23661e-07
2.11319e-07
0.000489944
0.00017558
2.19769e-06
9.72015e-08
3.48115e-08
2.9422e-08
2.88083e-08
2.87308e-08
2.86744e-08
2.81212e-08
0.00217405
0.00140243
0.000397753
1.53805e-05
1.70259e-06
9.55494e-07
8.79916e-07
8.708e-07
8.66375e-07
8.42246e-07
0.00725635
0.00624565
0.0035694
0.000208076
1.36645e-05
5.29976e-06
4.5479e-06
4.45924e-06
4.4213e-06
4.30113e-06
0.0165947
0.015501
0.00920553
0.000910786
4.7431e-05
1.29597e-05
1.01987e-05
9.8822e-06
9.7751e-06
9.61844e-06
0.0275794
0.0268329
0.0162474
0.00217225
0.000105779
2.11562e-05
1.50646e-05
1.43856e-05
1.42035e-05
1.41429e-05
0.0352741
0.0356611
0.0227135
0.00358184
0.000174338
2.71929e-05
1.75108e-05
1.64581e-05
1.62083e-05
1.61484e-05
0.036294
0.0377048
0.0245226
0.00433645
0.000216408
2.86137e-05
1.70023e-05
1.57642e-05
1.54869e-05
1.53218e-05
0.0297062
0.029977
0.0185978
0.00347165
0.000178271
2.22415e-05
1.28124e-05
1.18147e-05
1.15996e-05
1.13901e-05
0.0171636
0.0140685
0.00711756
0.00118077
5.97462e-05
8.13368e-06
4.93491e-06
4.59156e-06
4.51462e-06
4.36922e-06
0.00478703
0.0061449
0.00221444
6.26721e-05
1.55074e-06
3.18485e-07
2.39963e-07
2.31113e-07
2.28423e-07
2.15908e-07
0.000114506
2.58683e-05
1.619e-06
1.65163e-07
6.30601e-08
5.14011e-08
4.9836e-08
4.96129e-08
4.94702e-08
4.84597e-08
0.00446472
0.00302248
0.000367568
2.53515e-05
5.03429e-06
3.23431e-06
3.00927e-06
2.97803e-06
2.96193e-06
2.88036e-06
0.0157775
0.012982
0.00225823
0.000152708
2.36273e-05
1.33081e-05
1.20678e-05
1.18978e-05
1.18201e-05
1.14888e-05
0.00471822
0.0182627
0.00407988
0.000279143
3.44517e-05
1.66565e-05
1.46061e-05
1.43276e-05
1.42176e-05
1.38143e-05
0.00548084
0.0239926
0.00684296
0.000492788
4.79794e-05
1.87957e-05
1.56319e-05
1.52067e-05
1.5063e-05
1.46107e-05
0.00596993
0.028522
0.0100619
0.000791871
6.37403e-05
1.98837e-05
1.54623e-05
1.48756e-05
1.47001e-05
1.42144e-05
0.00619602
0.0305632
0.0125101
0.00109067
7.73979e-05
1.96576e-05
1.42311e-05
1.35198e-05
1.33234e-05
1.28238e-05
0.00624034
0.0296163
0.0127748
0.00120074
7.93605e-05
1.73812e-05
1.18597e-05
1.1142e-05
1.09512e-05
1.04743e-05
0.00614083
0.0260772
0.0103574
0.000954957
5.99807e-05
1.22565e-05
8.13313e-06
7.59771e-06
7.45473e-06
7.07284e-06
0.00376624
0.00295951
0.000539856
2.6273e-05
1.66799e-06
4.82532e-07
3.68588e-07
3.53056e-07
3.4825e-07
3.3036e-07
0.000755408
0.000771873
0.000789357
0.000804684
0.000818534
0.000831628
0.000844694
0.000858407
0.000873318
0.000889825
0.000853214
0.000853638
0.000853707
0.000853481
0.000852935
0.000852026
0.000850684
0.00084881
0.000846282
0.000843003
0.000855762
0.000855603
0.000855156
0.000854569
0.000853804
0.000852815
0.000851546
0.000849935
0.000847916
0.000845459
0.000854601
0.000854701
0.000854518
0.000854169
0.000853636
0.000852894
0.000851906
0.000850621
0.000848979
0.000846946
0.000853227
0.000853633
0.000853766
0.000853701
0.000853441
0.000852982
0.000852303
0.000851363
0.000850111
0.000848513
0.000851693
0.000852443
0.000852936
0.000853197
0.00085325
0.000853106
0.000852759
0.000852181
0.000851332
0.000850181
0.000849984
0.000851126
0.000852033
0.000852669
0.000853074
0.000853275
0.000853278
0.00085307
0.00085263
0.000851937
0.000848089
0.000849682
0.000851066
0.000852128
0.000852922
0.000853487
0.000853848
0.000854013
0.000853983
0.000853758
0.000845717
0.000847924
0.000849897
0.000851433
0.000852605
0.000853475
0.000854092
0.000854488
0.000854679
0.000854669
0.000866363
0.000860471
0.000854317
0.000848473
0.000842714
0.000836749
0.000830259
0.000822926
0.000814455
0.000804567
0.00131495
0.00118873
0.00106724
0.00096739
0.000882141
0.000803617
0.000724253
0.000637478
0.000537814
0.000419948
0.000829778
0.000848033
0.0008572
0.000859359
0.000857352
0.000852518
0.000844858
0.00083313
0.000814852
0.00078644
0.000851157
0.000851686
0.000852096
0.000852263
0.000852217
0.000851992
0.000851595
0.000851015
0.000850247
0.000849398
0.000852536
0.000852409
0.000852312
0.000852235
0.000852175
0.000852128
0.000852092
0.000852067
0.000852056
0.000852097
0.000852517
0.000852386
0.00085229
0.000852221
0.000852174
0.000852148
0.000852141
0.000852153
0.000852184
0.00085227
0.000852434
0.000852319
0.000852244
0.000852194
0.000852166
0.000852158
0.000852169
0.000852202
0.000852256
0.000852365
0.000852331
0.000852238
0.000852189
0.000852162
0.000852154
0.000852166
0.000852197
0.00085225
0.000852327
0.000852458
0.000851913
0.000851929
0.000851995
0.000852056
0.00085211
0.000852159
0.000852204
0.000852247
0.000852286
0.000852351
0.000836215
0.000842536
0.000847279
0.000850242
0.00085201
0.000852889
0.000852852
0.000851491
0.000847958
0.000840961
0.000626246
0.00068332
0.000738132
0.000785335
0.000827943
0.00086946
0.000913705
0.000964472
0.00102504
0.0010977
0.00191137
0.00158098
0.00128465
0.00105624
0.000873194
0.000713144
0.000557698
0.000394278
0.000216409
2.97534e-05
0.000808354
0.000893406
0.000920091
0.000912383
0.000887878
0.000854131
0.000811332
0.000753466
0.000667994
0.000535025
0.000834213
0.000845393
0.000853315
0.000856296
0.000855355
0.000851293
0.00084429
0.000833958
0.000819856
0.000802857
0.000849858
0.000850828
0.000851641
0.000852059
0.000852077
0.000851723
0.000851019
0.000849977
0.000848651
0.000847261
0.000852257
0.000852219
0.000852192
0.000852167
0.000852138
0.000852101
0.000852058
0.000852011
0.000851968
0.000851967
0.000852422
0.000852321
0.000852246
0.000852197
0.00085217
0.000852165
0.000852182
0.00085222
0.000852282
0.000852387
0.000851938
0.000851955
0.000852006
0.000852056
0.000852099
0.000852133
0.000852158
0.000852176
0.000852191
0.000852227
0.000845279
0.000847171
0.000849171
0.000850642
0.000851591
0.000852057
0.000852028
0.000851425
0.000850156
0.000848277
0.000759033
0.000794974
0.000822047
0.000839776
0.000851409
0.000858553
0.000860925
0.000855991
0.000838399
0.000799464
0.000336501
0.000465651
0.000585378
0.000689971
0.000786233
0.000882271
0.000987506
0.00111183
0.00126402
0.00145019
0.00245759
0.00183642
0.00136736
0.00104494
0.000809158
0.000613828
0.000430114
0.000248736
8.53258e-05
5.25132e-32
0.000966913
0.00111925
0.00110436
0.00102843
0.000937866
0.000847748
0.000756076
0.000648039
0.000491333
0.000231816
0.000826037
0.000877244
0.000901931
0.000901125
0.000884603
0.0008582
0.000822749
0.000774906
0.000709525
0.000626297
0.00083695
0.000848248
0.000856453
0.000859264
0.000857447
0.00085182
0.00084267
0.000829827
0.000813361
0.000795174
0.000847906
0.000849909
0.000851581
0.000852403
0.000852337
0.000851436
0.000849753
0.000847347
0.000844382
0.000841351
0.000850315
0.000850834
0.000851333
0.000851689
0.00085186
0.000851836
0.000851621
0.000851236
0.00085073
0.000850221
0.000844108
0.000846117
0.000848318
0.000850062
0.000851254
0.000851884
0.000851935
0.000851374
0.000850209
0.000848621
0.000802349
0.000816514
0.000831343
0.000842383
0.00084993
0.000854358
0.000855503
0.000852536
0.000844308
0.000830527
0.000586914
0.000687627
0.000761819
0.000812863
0.000850487
0.000879306
0.000898541
0.000900547
0.000867969
0.000769533
6.4763e-05
0.000250948
0.00042314
0.00057858
0.000725118
0.000875113
0.00104539
0.00125574
0.00152559
0.001871
0.00287846
0.00188715
0.00130384
0.000960535
0.000729197
0.000534729
0.000340023
0.000144956
1.08623e-05
3.50748e-30
0.00127674
0.0014153
0.00127285
0.00108862
0.000925112
0.000788663
0.000667864
0.000541029
0.000354662
5.64864e-05
0.000913817
0.00102741
0.00103934
0.000994521
0.000929902
0.000860873
0.000786624
0.000694345
0.000562327
0.000374014
0.000841519
0.000887342
0.000908634
0.000905615
0.000887493
0.000860121
0.000824251
0.000776578
0.000713152
0.00063739
0.0008356
0.000851303
0.000862133
0.000865279
0.000861972
0.000853482
0.000840199
0.000821789
0.000798394
0.000773143
0.000830225
0.000838238
0.000845882
0.000850778
0.000852732
0.000851882
0.00084831
0.000842041
0.000833427
0.000823905
0.000794664
0.000810253
0.000827572
0.00084092
0.000850088
0.000855283
0.000856339
0.000852598
0.000843434
0.000829592
0.00067158
0.000726756
0.000781306
0.000821803
0.000851328
0.000872214
0.000883759
0.000881416
0.000857555
0.000806195
0.000332585
0.000534406
0.000670484
0.000766089
0.000844111
0.00091534
0.000979905
0.00102315
0.00100499
0.000839732
2.90237e-29
8.38267e-05
0.000274202
0.000462187
0.000644226
0.000833954
0.00105768
0.00135248
0.00176196
0.00233249
0.00311351
0.00175673
0.00116895
0.000883352
0.000702629
0.000535387
0.000339782
0.00011973
2.12161e-33
3.508e-30
0.00161708
0.00159544
0.00129769
0.00104386
0.000859324
0.0007156
0.000587101
0.000457048
0.000274664
2.04602e-07
0.00108943
0.00122833
0.00116097
0.00103783
0.000921687
0.000823227
0.00073221
0.000626103
0.000460262
0.000177835
0.000898865
0.000996072
0.00100656
0.000967981
0.000914106
0.000857994
0.000797018
0.000717516
0.00059929
0.000434489
0.000823305
0.000878285
0.000904828
0.000904217
0.000888026
0.000862902
0.000828611
0.000779653
0.000710113
0.000625508
0.000765711
0.000807246
0.00084274
0.000862311
0.000869067
0.000865893
0.000852769
0.000826997
0.000786252
0.000735294
0.00066644
0.000728471
0.000789793
0.00083326
0.000862438
0.000880746
0.000887746
0.000878315
0.000844842
0.000784896
0.000468809
0.000605796
0.000719456
0.000799519
0.000861089
0.00091361
0.00095682
0.000977376
0.000946122
0.000826203
0.000144007
0.000424762
0.000595109
0.000712303
0.000819122
0.00093406
0.00106308
0.00119199
0.00125757
0.00107845
3.50734e-30
6.05618e-05
0.000210364
0.000392851
0.000578795
0.00077468
0.00101502
0.00136267
0.00191055
0.00278873
0.0030863
0.00149281
0.00101747
0.00084367
0.00074671
0.000635345
0.000462801
0.000213757
1.18133e-06
3.50851e-30
0.00189089
0.00157362
0.00117644
0.000950479
0.000822207
0.000717907
0.000598381
0.000455024
0.000270719
2.33138e-33
0.00127927
0.00133335
0.00115101
0.000987308
0.000876982
0.000794317
0.000712955
0.000612828
0.000448159
0.000101856
0.000975222
0.00109403
0.00105013
0.000968078
0.000898232
0.000842571
0.000786846
0.000708075
0.000564173
0.000306497
0.000803351
0.00091538
0.000943334
0.000925695
0.000897968
0.000870776
0.000837819
0.000780232
0.000669577
0.000495481
0.000663571
0.000778705
0.000850982
0.000879925
0.000889307
0.00089174
0.000885375
0.000854645
0.000775628
0.00064174
0.000494272
0.000651941
0.000766858
0.000833317
0.000876745
0.000913329
0.000944501
0.000953755
0.000905455
0.000764279
0.000262028
0.000514278
0.000672229
0.000769512
0.000847151
0.000927456
0.00101749
0.00110138
0.00111803
0.000944089
2.3159e-05
0.000336004
0.00051648
0.000638379
0.000755899
0.000890012
0.0010612
0.00128128
0.00150077
0.00143831
3.50739e-30
8.69362e-06
0.00015157
0.000352039
0.000540821
0.000717655
0.000925237
0.0012565
0.00188417
0.00313225
0.00275001
0.00113679
0.000868542
0.000830609
0.000820733
0.000784223
0.000681215
0.0004583
0.000107685
3.50863e-30
0.00196523
0.00131183
0.000965832
0.000867927
0.000837776
0.000803719
0.000727521
0.000582102
0.000369507
2.0795e-05
0.00140635
0.00123899
0.000998266
0.000893315
0.000854588
0.000827412
0.000780439
0.0006923
0.000536824
0.000142452
0.00104792
0.00109067
0.000975088
0.000898833
0.000865912
0.000848992
0.000826108
0.000775062
0.000647511
0.000312675
0.00080296
0.000936248
0.000921692
0.000887142
0.000870269
0.000867596
0.000867298
0.00084692
0.000749625
0.000485535
0.000601339
0.000794462
0.000854294
0.000861166
0.000866181
0.00088238
0.000908174
0.00092451
0.000870003
0.000653463
0.000396637
0.000662
0.000775996
0.000819054
0.000849494
0.000889684
0.00094897
0.00101854
0.00103327
0.00084607
0.000175664
0.00052625
0.000674326
0.000749941
0.000810564
0.000879237
0.000978115
0.00112288
0.00126378
0.00114962
8.7091e-06
0.000338737
0.000510836
0.000632239
0.000734846
0.000832304
0.000961184
0.00118396
0.00154367
0.00176417
3.50706e-30
1.63448e-05
0.000219964
0.000450434
0.000619021
0.000733545
0.000840525
0.00104389
0.0015971
0.00317455
0.00215313
0.000835179
0.000822132
0.000843673
0.000850309
0.000849507
0.000832491
0.000742206
0.000409155
4.86988e-33
0.00174846
0.000957192
0.000846977
0.000847634
0.000850911
0.000850466
0.000838298
0.000774106
0.000567079
7.93628e-05
0.00137588
0.000987352
0.000864494
0.000850843
0.000851338
0.000851763
0.000846064
0.000810789
0.000685787
0.000250259
0.00108691
0.000960012
0.00086861
0.000851615
0.000851268
0.000853193
0.000854334
0.00084427
0.000776142
0.000422831
0.000856397
0.000902786
0.000859718
0.000848762
0.00085017
0.000854433
0.000862772
0.0008763
0.0008591
0.000592486
0.000655541
0.000829509
0.000837815
0.000840733
0.000847228
0.000854865
0.000870593
0.000908297
0.000949812
0.000772369
0.000461037
0.000742502
0.000800104
0.000825132
0.000841244
0.000853386
0.000875665
0.000937913
0.0010559
0.00099481
0.000264074
0.000631245
0.000738991
0.000798514
0.000830721
0.000848316
0.000873478
0.000954235
0.00116836
0.00131917
8.58729e-05
0.000459217
0.000641558
0.000757614
0.000814627
0.00083783
0.000856877
0.000931798
0.00123372
0.00184321
3.50652e-30
0.00015848
0.000498147
0.000705146
0.000794853
0.000821789
0.000819457
0.000830614
0.00107339
0.0027286
0.00137704
0.000814288
0.000849566
0.000851599
0.000851406
0.000851107
0.00085072
0.000847299
0.000777676
0.000358877
0.00124306
0.000838854
0.00085069
0.00085195
0.000851806
0.00085158
0.000851297
0.000848934
0.000806211
0.000470575
0.00110329
0.00085304
0.000851556
0.000852257
0.00085219
0.000852044
0.000851878
0.000850762
0.000830145
0.000580603
0.000980557
0.000856923
0.00085186
0.00085246
0.000852494
0.000852425
0.000852368
0.000852385
0.000848204
0.000681953
0.000868235
0.000852738
0.000851379
0.000852512
0.000852699
0.000852708
0.000852743
0.000853703
0.000862874
0.000781677
0.000757334
0.00084102
0.000849785
0.000852344
0.000852774
0.000852869
0.000852965
0.000854518
0.000875299
0.000889728
0.000638171
0.00082002
0.000846557
0.000851863
0.000852679
0.000852877
0.000852967
0.000854395
0.000884124
0.00101981
0.0005017
0.000784878
0.000840965
0.000850952
0.000852357
0.000852683
0.000852651
0.00085253
0.000883523
0.00118932
0.000339904
0.00072621
0.000832278
0.000849512
0.000851742
0.000852223
0.000851901
0.000847775
0.000859673
0.00141794
0.000143298
0.000628069
0.000820762
0.000847598
0.000850801
0.000851464
0.000850681
0.000839243
0.000784641
0.00172619
0.000575578
0.000826654
0.000847033
0.000848254
0.000849176
0.000850103
0.000851035
0.000851745
0.000841651
0.00110668
0.000637746
0.000836339
0.000848905
0.000849811
0.000850514
0.000851218
0.000851924
0.000852473
0.000848496
0.00104014
0.000700387
0.000844579
0.000850732
0.000851307
0.00085178
0.000852252
0.00085272
0.000853075
0.000852601
0.000970441
0.000757093
0.000850734
0.000852269
0.000852546
0.000852812
0.000853074
0.000853325
0.000853457
0.000853899
0.000907502
0.000811766
0.00085546
0.000853495
0.000853506
0.000853574
0.000853636
0.000853678
0.000853517
0.000852768
0.000847805
0.000869705
0.000859042
0.000854378
0.000854156
0.000854019
0.000853872
0.000853691
0.000853119
0.000849079
0.000786528
0.000937746
0.000861058
0.00085484
0.000854445
0.000854074
0.000853688
0.000853249
0.000852071
0.000841972
0.000718126
0.00102402
0.000859862
0.000854743
0.000854291
0.000853637
0.000852955
0.000852195
0.000850122
0.000829588
0.000636854
0.00113713
0.000851746
0.000853894
0.00085358
0.000852567
0.000851509
0.000850337
0.000846989
0.000808712
0.00053703
0.00128501
0.000829769
0.000852159
0.000852186
0.000850719
0.000849182
0.000847493
0.000842479
0.00077451
0.000412255
0.000347339
0.000774164
0.000848453
0.000852102
0.000852274
0.000852324
0.000852233
0.000849502
0.000811049
0.00140303
0.000461966
0.000804197
0.000849647
0.00085209
0.00085221
0.000852249
0.000852173
0.00085033
0.000837765
0.0012635
0.00057486
0.000829186
0.000850989
0.000852115
0.000852173
0.000852192
0.0008521
0.000851022
0.00085295
0.00111788
0.000679061
0.000848059
0.000852233
0.000852156
0.000852153
0.000852148
0.000852002
0.000851153
0.000857085
0.000990506
0.000781821
0.000863517
0.00085328
0.000852194
0.000852147
0.000852115
0.000851848
0.0008505
0.0008527
0.000874479
0.000893439
0.000876841
0.000853904
0.0008522
0.000852153
0.000852085
0.000851593
0.000848756
0.000840501
0.000760442
0.00102819
0.000886621
0.000853595
0.000852119
0.000852166
0.000852053
0.000851178
0.000845424
0.000818721
0.000638362
0.00120432
0.000886559
0.000851422
0.000851875
0.00085218
0.000852014
0.000850539
0.000839789
0.000782237
0.000498938
0.00144261
0.000861503
0.000846131
0.000851398
0.000852195
0.000851968
0.000849642
0.000831074
0.000721116
0.000334072
0.00176449
0.000780511
0.000837263
0.000850751
0.000852244
0.000851959
0.000848596
0.000819192
0.000618546
0.00013451
0.000103416
0.000647278
0.000828815
0.000850447
0.000852215
0.000852186
0.000850803
0.000839095
0.000786777
0.00173405
0.000263704
0.000722957
0.000836373
0.000851015
0.000852183
0.000852119
0.000851067
0.000844273
0.00085181
0.00149482
0.000418583
0.000784783
0.000844741
0.000851766
0.000852174
0.000852008
0.000851162
0.000848845
0.000881374
0.00125272
0.000563297
0.000833028
0.000852722
0.000852601
0.000852176
0.000851841
0.000850871
0.000850242
0.000882643
0.00104942
0.000705735
0.000875979
0.000860238
0.000853403
0.000852157
0.000851561
0.000849928
0.000847723
0.000864558
0.000873085
0.00086034
0.000918968
0.000866731
0.000853914
0.000852054
0.000851088
0.000847962
0.000840305
0.000831096
0.000707903
0.00105073
0.000961775
0.000870231
0.000853627
0.000851765
0.000850311
0.000844461
0.000826168
0.000780453
0.000538401
0.00131168
0.000992869
0.000866318
0.000851711
0.00085115
0.000849115
0.000838801
0.000802286
0.000703384
0.00035331
0.00168889
0.000976749
0.000847937
0.000847236
0.000850105
0.000847449
0.000830495
0.000764735
0.000579158
0.000150174
0.00223831
0.000825999
0.000810169
0.00084033
0.000848772
0.000845516
0.000819966
0.000711318
0.000368587
2.67052e-33
3.21539e-33
0.000437661
0.000757486
0.000835977
0.000849885
0.000850601
0.000844529
0.000820698
0.000819135
0.00210847
9.42586e-05
0.000586431
0.000787065
0.000840943
0.000850579
0.000850926
0.000847243
0.000840715
0.000941747
0.00172716
0.000265552
0.000699329
0.000818017
0.000846975
0.000851451
0.000851091
0.000849774
0.000857709
0.000973602
0.00136781
0.000436325
0.000785892
0.000846705
0.000853491
0.000852406
0.000850821
0.00085027
0.000862827
0.000951329
0.00108609
0.000604052
0.000865307
0.00087465
0.000860231
0.000853207
0.000849706
0.000847691
0.000855973
0.000900143
0.000859528
0.000782571
0.000951929
0.00090262
0.00086641
0.000853365
0.000847124
0.000840749
0.000837016
0.000832402
0.000661044
0.00100412
0.00105308
0.000927462
0.000869914
0.00085197
0.00084217
0.000827498
0.000803396
0.000749033
0.000468192
0.0013264
0.00115939
0.000937596
0.000866472
0.00084763
0.000833714
0.000805124
0.000748282
0.000638338
0.000272016
0.00183987
0.00121512
0.000909131
0.000850139
0.000838954
0.000820881
0.000770572
0.000659704
0.000466559
9.19261e-05
0.00267797
0.0010327
0.000816149
0.000819232
0.00082657
0.000804518
0.000723529
0.000525029
0.000173773
3.50643e-30
3.50823e-30
0.000229919
0.000604086
0.000772513
0.000828858
0.000840414
0.00083128
0.00081831
0.000965113
0.00250952
6.58134e-05
0.00045246
0.000682891
0.000795633
0.000835525
0.000844917
0.000845392
0.000874852
0.00115248
0.00191787
0.000197935
0.00060476
0.000756064
0.000820942
0.000843378
0.000849975
0.000859234
0.000911986
0.00113874
0.00142588
0.00035993
0.000713059
0.000817329
0.000845574
0.00085143
0.000853314
0.000864467
0.000914179
0.00104859
0.00107731
0.000526437
0.000812478
0.000874937
0.000870181
0.000858997
0.000853598
0.000859764
0.000890083
0.0009354
0.000821991
0.000699993
0.000928314
0.000936992
0.000894913
0.000864652
0.000848999
0.000844215
0.000847524
0.000819465
0.000609159
0.000913865
0.00108191
0.00100538
0.000916327
0.000865079
0.000836356
0.000814908
0.000787299
0.000700954
0.000401927
0.0012474
0.00128402
0.00106462
0.000922959
0.000853884
0.000810545
0.000764936
0.000699238
0.00056535
0.000190483
0.00185396
0.00148462
0.00106335
0.000893079
0.000822595
0.00076564
0.00068327
0.000557614
0.000369055
2.62042e-05
0.00301524
0.00136368
0.000914722
0.000811273
0.000770207
0.000701487
0.000561657
0.000324424
5.27502e-05
3.50678e-30
3.50904e-30
6.12012e-05
0.000385801
0.000624336
0.000747773
0.000799134
0.000819736
0.000880883
0.00123948
0.00291655
6.896e-06
0.000324213
0.000545669
0.000695347
0.000780611